
     Program PWSCF v.6.7MaX starts on 24Dec2020 at 10:29:59 

     This program is part of the open-source Quantum ESPRESSO suite
     for quantum simulation of materials; please cite
         "P. Giannozzi et al., J. Phys.:Condens. Matter 21 395502 (2009);
         "P. Giannozzi et al., J. Phys.:Condens. Matter 29 465901 (2017);
          URL http://www.quantum-espresso.org", 
     in publications or presentations arising from this work. More details at
     http://www.quantum-espresso.org/quote

     Serial multi-threaded version, running on    1 processor cores
     Reading input from band.in

     Current dimensions of program PWSCF are:
     Max number of different atomic species (ntypx) = 10
     Max number of k-points (npk) =  40000
     Max angular momentum in pseudopotentials (lmaxx) =  3

     Atomic positions and unit cell read from directory:
     ./out/aiida.save/
     Atomic positions from file used, from input discarded

     file Fe.pbe-spn-kjpaw_psl.0.2.1.UPF: wavefunction(s)  3D renormalized
     Found symmetry operation: I + ( -0.0000  0.0000 -0.5000)
     This is a supercell, fractional translations are disabled
     Message from routine setup:
     using ibrav=0 with symmetry is DISCOURAGED, use correct ibrav instead

     G-vector sticks info
     --------------------
     sticks:   dense  smooth     PW     G-vecs:    dense   smooth      PW
     Sum        1209     485    151                68115    17241    3015



     bravais-lattice index     =            0
     lattice parameter (alat)  =       4.6247  a.u.
     unit-cell volume          =     360.6537 (a.u.)^3
     number of atoms/cell      =           10
     number of atomic types    =            2
     number of electrons       =        72.00
     number of Kohn-Sham states=           43
     kinetic-energy cutoff     =      50.0000  Ry
     charge density cutoff     =     500.0000  Ry
     Exchange-correlation= PBE
                           (   1   4   3   4   0   0   0)

     celldm(1)=   4.624727  celldm(2)=   0.000000  celldm(3)=   0.000000
     celldm(4)=   0.000000  celldm(5)=   0.000000  celldm(6)=   0.000000

     crystal axes: (cart. coord. in units of alat)
               a(1) = (  -1.000000   0.000000   0.000000 )  
               a(2) = (  -0.034383  -1.416982   0.000000 )  
               a(3) = (   0.989489   0.778733   2.573167 )  

     reciprocal axes: (cart. coord. in units 2 pi/alat)
               b(1) = ( -1.000000  0.024265  0.377198 )  
               b(2) = (  0.000000 -0.705725  0.213578 )  
               b(3) = (  0.000000  0.000000  0.388626 )  


     PseudoPot. # 1 for Fe read from file:
     ../pseudo/Fe.pbe-spn-kjpaw_psl.0.2.1.UPF
     MD5 check sum: e86618425769142926afa95317d90200
     Pseudo is Projector augmented-wave + core cor, Zval = 16.0
     Generated using "atomic" code by A. Dal Corso  v.5.0.99 svn rev. 10869
     Shape of augmentation charge: PSQ
     Using radial grid of 1191 points,  6 beta functions with: 
                l(1) =   0
                l(2) =   0
                l(3) =   1
                l(4) =   1
                l(5) =   2
                l(6) =   2
     Q(r) pseudized with 0 coefficients 


     PseudoPot. # 2 for N  read from file:
     ../pseudo/N.pbe-n-radius_5.UPF
     MD5 check sum: 16739722b17309cd8fe442a2ace49922
     Pseudo is Ultrasoft + core correction, Zval =  5.0
     Generated using "atomic" code by A. Dal Corso  v.5.1
     Using radial grid of 1085 points,  4 beta functions with: 
                l(1) =   0
                l(2) =   0
                l(3) =   1
                l(4) =   1
     Q(r) pseudized with 0 coefficients 


     atomic species   valence    mass     pseudopotential
        Fe            16.00    55.84500     Fe( 1.00)
        N              5.00    14.00670     N ( 1.00)

      2 Sym. Ops., with inversion, found


                                    s                        frac. trans.

      isym =  1     identity                                     

 cryst.   s( 1) = (     1          0          0      )
                  (     0          1          0      )
                  (     0          0          1      )

 cart.    s( 1) = (  1.0000000 -0.0000000  0.0000000 )
                  (  0.0000000  1.0000000  0.0000000 )
                  (  0.0000000  0.0000000  1.0000000 )


      isym =  2     inversion                                    

 cryst.   s( 2) = (    -1          0          0      )
                  (     0         -1          0      )
                  (     0          0         -1      )

 cart.    s( 2) = ( -1.0000000  0.0000000  0.0000000 )
                  (  0.0000000 -1.0000000  0.0000000 )
                  (  0.0000000  0.0000000 -1.0000000 )


   Cartesian axes

     site n.     atom                  positions (alat units)
         1           Fe  tau(   1) = (   0.5000000   0.0000000   0.0000000  )
         2           N   tau(   2) = (   0.6144374   1.1155488   0.6239930  )
         3           N   tau(   3) = (   0.9146898   0.6907994   0.6625905  )
         4           N   tau(   4) = (   0.5237334   1.3143789   1.1077483  )
         5           N   tau(   5) = (   1.0053938   0.4919693   0.1788351  )
         6           Fe  tau(   6) = (  -0.0052557   0.3893666   1.2865834  )
         7           N   tau(   7) = (   0.0747988   0.0879337   1.9105764  )
         8           N   tau(   8) = (   0.3750512  -0.3368157   1.9491739  )
         9           N   tau(   9) = (  -0.0159052   0.2867638   2.3943318  )
        10           N   tau(  10) = (   0.4657552  -0.5356458   1.4654185  )

   Crystallographic axes

     site n.     atom                  positions (cryst. coord.)
         1           Fe  tau(   1) = ( -0.5000000  0.0000000  0.0000000  )
         2           N   tau(   2) = ( -0.3520000 -0.6540000  0.2425000  )
         3           N   tau(   3) = ( -0.6480000 -0.3460000  0.2575000  )
         4           N   tau(   4) = ( -0.0740000 -0.6910000  0.4305000  )
         5           N   tau(   5) = ( -0.9260000 -0.3090000  0.0695000  )
         6           Fe  tau(   6) = (  0.5000000  0.0000000  0.5000000  )
         7           N   tau(   7) = (  0.6480000  0.3460000  0.7425000  )
         8           N   tau(   8) = (  0.3520000  0.6540000  0.7575000  )
         9           N   tau(   9) = (  0.9260000  0.3090000  0.9305000  )
        10           N   tau(  10) = (  0.0740000  0.6910000  0.5695000  )

     number of k points=   347  Marzari-Vanderbilt smearing, width (Ry)=  0.0220
                       cart. coord. in units 2pi/alat
        k(    1) = (   0.0000000   0.0000000   0.0000000), wk =   0.0000331
        k(    2) = (  -0.0094340   0.0002289   0.0035585), wk =   0.0000662
        k(    3) = (  -0.0188679   0.0004578   0.0071169), wk =   0.0000994
        k(    4) = (  -0.0283019   0.0006867   0.0106754), wk =   0.0001325
        k(    5) = (  -0.0377358   0.0009157   0.0142339), wk =   0.0001656
        k(    6) = (  -0.0471698   0.0011446   0.0177923), wk =   0.0001987
        k(    7) = (  -0.0566038   0.0013735   0.0213508), wk =   0.0002319
        k(    8) = (  -0.0660377   0.0016024   0.0249093), wk =   0.0002650
        k(    9) = (  -0.0754717   0.0018313   0.0284678), wk =   0.0002981
        k(   10) = (  -0.0849057   0.0020602   0.0320262), wk =   0.0003312
        k(   11) = (  -0.0943396   0.0022891   0.0355847), wk =   0.0003644
        k(   12) = (  -0.1037736   0.0025180   0.0391432), wk =   0.0003975
        k(   13) = (  -0.1132075   0.0027470   0.0427016), wk =   0.0004306
        k(   14) = (  -0.1226415   0.0029759   0.0462601), wk =   0.0004637
        k(   15) = (  -0.1320755   0.0032048   0.0498186), wk =   0.0004969
        k(   16) = (  -0.1415094   0.0034337   0.0533770), wk =   0.0005300
        k(   17) = (  -0.1509434   0.0036626   0.0569355), wk =   0.0005631
        k(   18) = (  -0.1603774   0.0038915   0.0604940), wk =   0.0005962
        k(   19) = (  -0.1698113   0.0041204   0.0640524), wk =   0.0006294
        k(   20) = (  -0.1792453   0.0043494   0.0676109), wk =   0.0006625
        k(   21) = (  -0.1886792   0.0045783   0.0711694), wk =   0.0006956
        k(   22) = (  -0.1981132   0.0048072   0.0747279), wk =   0.0007287
        k(   23) = (  -0.2075472   0.0050361   0.0782863), wk =   0.0007619
        k(   24) = (  -0.2169811   0.0052650   0.0818448), wk =   0.0007950
        k(   25) = (  -0.2264151   0.0054939   0.0854033), wk =   0.0008281
        k(   26) = (  -0.2358491   0.0057228   0.0889617), wk =   0.0008612
        k(   27) = (  -0.2452830   0.0059518   0.0925202), wk =   0.0008944
        k(   28) = (  -0.2547170   0.0061807   0.0960787), wk =   0.0009275
        k(   29) = (  -0.2641509   0.0064096   0.0996371), wk =   0.0009606
        k(   30) = (  -0.2735849   0.0066385   0.1031956), wk =   0.0009937
        k(   31) = (  -0.2830189   0.0068674   0.1067541), wk =   0.0010269
        k(   32) = (  -0.2924528   0.0070963   0.1103125), wk =   0.0010600
        k(   33) = (  -0.3018868   0.0073252   0.1138710), wk =   0.0010931
        k(   34) = (  -0.3113208   0.0075541   0.1174295), wk =   0.0011262
        k(   35) = (  -0.3207547   0.0077831   0.1209880), wk =   0.0011594
        k(   36) = (  -0.3301887   0.0080120   0.1245464), wk =   0.0011925
        k(   37) = (  -0.3396226   0.0082409   0.1281049), wk =   0.0012256
        k(   38) = (  -0.3490566   0.0084698   0.1316634), wk =   0.0012587
        k(   39) = (  -0.3584906   0.0086987   0.1352218), wk =   0.0012919
        k(   40) = (  -0.3679245   0.0089276   0.1387803), wk =   0.0013250
        k(   41) = (  -0.3773585   0.0091565   0.1423388), wk =   0.0013581
        k(   42) = (  -0.3867925   0.0093855   0.1458972), wk =   0.0013912
        k(   43) = (  -0.3962264   0.0096144   0.1494557), wk =   0.0014244
        k(   44) = (  -0.4056604   0.0098433   0.1530142), wk =   0.0014575
        k(   45) = (  -0.4150943   0.0100722   0.1565727), wk =   0.0014906
        k(   46) = (  -0.4245283   0.0103011   0.1601311), wk =   0.0015237
        k(   47) = (  -0.4339623   0.0105300   0.1636896), wk =   0.0015569
        k(   48) = (  -0.4433962   0.0107589   0.1672481), wk =   0.0015900
        k(   49) = (  -0.4528302   0.0109879   0.1708065), wk =   0.0016231
        k(   50) = (  -0.4622642   0.0112168   0.1743650), wk =   0.0016562
        k(   51) = (  -0.4716981   0.0114457   0.1779235), wk =   0.0016894
        k(   52) = (  -0.4811321   0.0116746   0.1814819), wk =   0.0017225
        k(   53) = (  -0.4905660   0.0119035   0.1850404), wk =   0.0017556
        k(   54) = (  -0.5000000   0.0121324   0.1885989), wk =   0.0017887
        k(   55) = (   0.0000000  -0.3528627   0.1067890), wk =   0.0018219
        k(   56) = (   0.0000000  -0.3430610   0.1038226), wk =   0.0018550
        k(   57) = (   0.0000000  -0.3332592   0.1008563), wk =   0.0018881
        k(   58) = (   0.0000000  -0.3234575   0.0978899), wk =   0.0019212
        k(   59) = (   0.0000000  -0.3136557   0.0949235), wk =   0.0019544
        k(   60) = (   0.0000000  -0.3038540   0.0919572), wk =   0.0019875
        k(   61) = (   0.0000000  -0.2940523   0.0889908), wk =   0.0020206
        k(   62) = (   0.0000000  -0.2842505   0.0860245), wk =   0.0020537
        k(   63) = (   0.0000000  -0.2744488   0.0830581), wk =   0.0020869
        k(   64) = (   0.0000000  -0.2646470   0.0800917), wk =   0.0021200
        k(   65) = (   0.0000000  -0.2548453   0.0771254), wk =   0.0021531
        k(   66) = (   0.0000000  -0.2450436   0.0741590), wk =   0.0021862
        k(   67) = (   0.0000000  -0.2352418   0.0711927), wk =   0.0022194
        k(   68) = (   0.0000000  -0.2254401   0.0682263), wk =   0.0022525
        k(   69) = (   0.0000000  -0.2156383   0.0652599), wk =   0.0022856
        k(   70) = (   0.0000000  -0.2058366   0.0622936), wk =   0.0023187
        k(   71) = (   0.0000000  -0.1960348   0.0593272), wk =   0.0023519
        k(   72) = (   0.0000000  -0.1862331   0.0563609), wk =   0.0023850
        k(   73) = (   0.0000000  -0.1764314   0.0533945), wk =   0.0024181
        k(   74) = (   0.0000000  -0.1666296   0.0504281), wk =   0.0024512
        k(   75) = (   0.0000000  -0.1568279   0.0474618), wk =   0.0024843
        k(   76) = (   0.0000000  -0.1470261   0.0444954), wk =   0.0025175
        k(   77) = (   0.0000000  -0.1372244   0.0415290), wk =   0.0025506
        k(   78) = (   0.0000000  -0.1274226   0.0385627), wk =   0.0025837
        k(   79) = (   0.0000000  -0.1176209   0.0355963), wk =   0.0026168
        k(   80) = (   0.0000000  -0.1078192   0.0326300), wk =   0.0026500
        k(   81) = (   0.0000000  -0.0980174   0.0296636), wk =   0.0026831
        k(   82) = (   0.0000000  -0.0882157   0.0266972), wk =   0.0027162
        k(   83) = (   0.0000000  -0.0784139   0.0237309), wk =   0.0027493
        k(   84) = (   0.0000000  -0.0686122   0.0207645), wk =   0.0027825
        k(   85) = (   0.0000000  -0.0588105   0.0177982), wk =   0.0028156
        k(   86) = (   0.0000000  -0.0490087   0.0148318), wk =   0.0028487
        k(   87) = (   0.0000000  -0.0392070   0.0118654), wk =   0.0028818
        k(   88) = (   0.0000000  -0.0294052   0.0088991), wk =   0.0029150
        k(   89) = (   0.0000000  -0.0196035   0.0059327), wk =   0.0029481
        k(   90) = (   0.0000000  -0.0098017   0.0029664), wk =   0.0029812
        k(   91) = (   0.0000000   0.0000000   0.0102270), wk =   0.0030143
        k(   92) = (   0.0000000   0.0000000   0.0204540), wk =   0.0030475
        k(   93) = (   0.0000000   0.0000000   0.0306810), wk =   0.0030806
        k(   94) = (   0.0000000   0.0000000   0.0409080), wk =   0.0031137
        k(   95) = (   0.0000000   0.0000000   0.0511350), wk =   0.0031468
        k(   96) = (   0.0000000   0.0000000   0.0613620), wk =   0.0031800
        k(   97) = (   0.0000000   0.0000000   0.0715890), wk =   0.0032131
        k(   98) = (   0.0000000   0.0000000   0.0818160), wk =   0.0032462
        k(   99) = (   0.0000000   0.0000000   0.0920430), wk =   0.0032793
        k(  100) = (   0.0000000   0.0000000   0.1022700), wk =   0.0033125
        k(  101) = (   0.0000000   0.0000000   0.1124971), wk =   0.0033456
        k(  102) = (   0.0000000   0.0000000   0.1227241), wk =   0.0033787
        k(  103) = (   0.0000000   0.0000000   0.1329511), wk =   0.0034118
        k(  104) = (   0.0000000   0.0000000   0.1431781), wk =   0.0034450
        k(  105) = (   0.0000000   0.0000000   0.1534051), wk =   0.0034781
        k(  106) = (   0.0000000   0.0000000   0.1636321), wk =   0.0035112
        k(  107) = (   0.0000000   0.0000000   0.1738591), wk =   0.0035443
        k(  108) = (   0.0000000   0.0000000   0.1840861), wk =   0.0035775
        k(  109) = (   0.0000000   0.0000000   0.1943131), wk =   0.0036106
        k(  110) = (   0.0000000   0.0000000  -0.1840861), wk =   0.0036437
        k(  111) = (   0.0000000   0.0000000  -0.1738591), wk =   0.0036768
        k(  112) = (   0.0000000   0.0000000  -0.1636321), wk =   0.0037100
        k(  113) = (   0.0000000   0.0000000  -0.1534051), wk =   0.0037431
        k(  114) = (   0.0000000   0.0000000  -0.1431781), wk =   0.0037762
        k(  115) = (   0.0000000   0.0000000  -0.1329511), wk =   0.0038093
        k(  116) = (   0.0000000   0.0000000  -0.1227241), wk =   0.0038425
        k(  117) = (   0.0000000   0.0000000  -0.1124971), wk =   0.0038756
        k(  118) = (   0.0000000   0.0000000  -0.1022700), wk =   0.0039087
        k(  119) = (   0.0000000   0.0000000  -0.0920430), wk =   0.0039418
        k(  120) = (   0.0000000   0.0000000  -0.0818160), wk =   0.0039750
        k(  121) = (   0.0000000   0.0000000  -0.0715890), wk =   0.0040081
        k(  122) = (   0.0000000   0.0000000  -0.0613620), wk =   0.0040412
        k(  123) = (   0.0000000   0.0000000  -0.0511350), wk =   0.0040743
        k(  124) = (   0.0000000   0.0000000  -0.0409080), wk =   0.0041075
        k(  125) = (   0.0000000   0.0000000  -0.0306810), wk =   0.0041406
        k(  126) = (   0.0000000   0.0000000  -0.0204540), wk =   0.0041737
        k(  127) = (   0.0000000   0.0000000  -0.0102270), wk =   0.0042068
        k(  128) = (  -0.5000000  -0.3407303  -0.0932383), wk =   0.0042400
        k(  129) = (   0.4918033   0.3351446   0.0917098), wk =   0.0042731
        k(  130) = (   0.4836066   0.3295588   0.0901813), wk =   0.0043062
        k(  131) = (   0.4754098   0.3239731   0.0886528), wk =   0.0043393
        k(  132) = (   0.4672131   0.3183873   0.0871243), wk =   0.0043725
        k(  133) = (   0.4590164   0.3128016   0.0855958), wk =   0.0044056
        k(  134) = (   0.4508197   0.3072158   0.0840673), wk =   0.0044387
        k(  135) = (   0.4426230   0.3016301   0.0825388), wk =   0.0044718
        k(  136) = (   0.4344262   0.2960444   0.0810103), wk =   0.0045050
        k(  137) = (   0.4262295   0.2904586   0.0794818), wk =   0.0045381
        k(  138) = (   0.4180328   0.2848729   0.0779533), wk =   0.0045712
        k(  139) = (   0.4098361   0.2792871   0.0764248), wk =   0.0046043
        k(  140) = (   0.4016393   0.2737014   0.0748964), wk =   0.0046375
        k(  141) = (   0.3934426   0.2681156   0.0733679), wk =   0.0046706
        k(  142) = (   0.3852459   0.2625299   0.0718394), wk =   0.0047037
        k(  143) = (   0.3770492   0.2569442   0.0703109), wk =   0.0047368
        k(  144) = (   0.3688525   0.2513584   0.0687824), wk =   0.0047699
        k(  145) = (   0.3606557   0.2457727   0.0672539), wk =   0.0048031
        k(  146) = (   0.3524590   0.2401869   0.0657254), wk =   0.0048362
        k(  147) = (   0.3442623   0.2346012   0.0641969), wk =   0.0048693
        k(  148) = (   0.3360656   0.2290154   0.0626684), wk =   0.0049024
        k(  149) = (   0.3278689   0.2234297   0.0611399), wk =   0.0049356
        k(  150) = (   0.3196721   0.2178440   0.0596114), wk =   0.0049687
        k(  151) = (   0.3114754   0.2122582   0.0580829), wk =   0.0050018
        k(  152) = (   0.3032787   0.2066725   0.0565544), wk =   0.0050349
        k(  153) = (   0.2950820   0.2010867   0.0550259), wk =   0.0050681
        k(  154) = (   0.2868852   0.1955010   0.0534974), wk =   0.0051012
        k(  155) = (   0.2786885   0.1899152   0.0519689), wk =   0.0051343
        k(  156) = (   0.2704918   0.1843295   0.0504404), wk =   0.0051674
        k(  157) = (   0.2622951   0.1787438   0.0489119), wk =   0.0052006
        k(  158) = (   0.2540984   0.1731580   0.0473834), wk =   0.0052337
        k(  159) = (   0.2459016   0.1675723   0.0458549), wk =   0.0052668
        k(  160) = (   0.2377049   0.1619865   0.0443264), wk =   0.0052999
        k(  161) = (   0.2295082   0.1564008   0.0427979), wk =   0.0053331
        k(  162) = (   0.2213115   0.1508150   0.0412694), wk =   0.0053662
        k(  163) = (   0.2131148   0.1452293   0.0397409), wk =   0.0053993
        k(  164) = (   0.2049180   0.1396436   0.0382124), wk =   0.0054324
        k(  165) = (   0.1967213   0.1340578   0.0366839), wk =   0.0054656
        k(  166) = (   0.1885246   0.1284721   0.0351554), wk =   0.0054987
        k(  167) = (   0.1803279   0.1228863   0.0336269), wk =   0.0055318
        k(  168) = (   0.1721311   0.1173006   0.0320984), wk =   0.0055649
        k(  169) = (   0.1639344   0.1117149   0.0305699), wk =   0.0055981
        k(  170) = (   0.1557377   0.1061291   0.0290414), wk =   0.0056312
        k(  171) = (   0.1475410   0.1005434   0.0275129), wk =   0.0056643
        k(  172) = (   0.1393443   0.0949576   0.0259844), wk =   0.0056974
        k(  173) = (   0.1311475   0.0893719   0.0244560), wk =   0.0057306
        k(  174) = (   0.1229508   0.0837861   0.0229275), wk =   0.0057637
        k(  175) = (   0.1147541   0.0782004   0.0213990), wk =   0.0057968
        k(  176) = (   0.1065574   0.0726147   0.0198705), wk =   0.0058299
        k(  177) = (   0.0983607   0.0670289   0.0183420), wk =   0.0058631
        k(  178) = (   0.0901639   0.0614432   0.0168135), wk =   0.0058962
        k(  179) = (   0.0819672   0.0558574   0.0152850), wk =   0.0059293
        k(  180) = (   0.0737705   0.0502717   0.0137565), wk =   0.0059624
        k(  181) = (   0.0655738   0.0446859   0.0122280), wk =   0.0059956
        k(  182) = (   0.0573770   0.0391002   0.0106995), wk =   0.0060287
        k(  183) = (   0.0491803   0.0335145   0.0091710), wk =   0.0060618
        k(  184) = (   0.0409836   0.0279287   0.0076425), wk =   0.0060949
        k(  185) = (   0.0327869   0.0223430   0.0061140), wk =   0.0061281
        k(  186) = (   0.0245902   0.0167572   0.0045855), wk =   0.0061612
        k(  187) = (   0.0163934   0.0111715   0.0030570), wk =   0.0061943
        k(  188) = (   0.0081967   0.0055857   0.0015285), wk =   0.0062274
        k(  189) = (   0.0000000   0.0078414   0.0062630), wk =   0.0062606
        k(  190) = (   0.0000000   0.0156828   0.0125261), wk =   0.0062937
        k(  191) = (   0.0000000   0.0235242   0.0187891), wk =   0.0063268
        k(  192) = (   0.0000000   0.0313656   0.0250522), wk =   0.0063599
        k(  193) = (   0.0000000   0.0392070   0.0313152), wk =   0.0063931
        k(  194) = (   0.0000000   0.0470484   0.0375783), wk =   0.0064262
        k(  195) = (   0.0000000   0.0548898   0.0438413), wk =   0.0064593
        k(  196) = (   0.0000000   0.0627311   0.0501044), wk =   0.0064924
        k(  197) = (   0.0000000   0.0705725   0.0563674), wk =   0.0065256
        k(  198) = (   0.0000000   0.0784139   0.0626305), wk =   0.0065587
        k(  199) = (   0.0000000   0.0862553   0.0688935), wk =   0.0065918
        k(  200) = (   0.0000000   0.0940967   0.0751566), wk =   0.0066249
        k(  201) = (   0.0000000   0.1019381   0.0814196), wk =   0.0066581
        k(  202) = (   0.0000000   0.1097795   0.0876827), wk =   0.0066912
        k(  203) = (   0.0000000   0.1176209   0.0939457), wk =   0.0067243
        k(  204) = (   0.0000000   0.1254623   0.1002088), wk =   0.0067574
        k(  205) = (   0.0000000   0.1333037   0.1064718), wk =   0.0067906
        k(  206) = (   0.0000000   0.1411451   0.1127349), wk =   0.0068237
        k(  207) = (   0.0000000   0.1489865   0.1189979), wk =   0.0068568
        k(  208) = (   0.0000000   0.1568279   0.1252610), wk =   0.0068899
        k(  209) = (   0.0000000   0.1646693   0.1315240), wk =   0.0069231
        k(  210) = (   0.0000000   0.1725107   0.1377871), wk =   0.0069562
        k(  211) = (   0.0000000   0.1803521   0.1440501), wk =   0.0069893
        k(  212) = (   0.0000000   0.1881934   0.1503132), wk =   0.0070224
        k(  213) = (   0.0000000   0.1960348   0.1565762), wk =   0.0070556
        k(  214) = (   0.0000000   0.2038762   0.1628393), wk =   0.0070887
        k(  215) = (   0.0000000   0.2117176   0.1691023), wk =   0.0071218
        k(  216) = (   0.0000000   0.2195590   0.1753654), wk =   0.0071549
        k(  217) = (   0.0000000   0.2274004   0.1816284), wk =   0.0071880
        k(  218) = (   0.0000000   0.2352418   0.1878915), wk =   0.0072212
        k(  219) = (   0.0000000   0.2430832   0.1941545), wk =   0.0072543
        k(  220) = (  -0.0000000   0.2509246  -0.1882086), wk =   0.0072874
        k(  221) = (  -0.0000000   0.2587660  -0.1819456), wk =   0.0073205
        k(  222) = (  -0.0000000   0.2666074  -0.1756825), wk =   0.0073537
        k(  223) = (  -0.0000000   0.2744488  -0.1694195), wk =   0.0073868
        k(  224) = (  -0.0000000   0.2822902  -0.1631564), wk =   0.0074199
        k(  225) = (  -0.0000000   0.2901316  -0.1568934), wk =   0.0074530
        k(  226) = (  -0.0000000   0.2979730  -0.1506303), wk =   0.0074862
        k(  227) = (  -0.0000000   0.3058144  -0.1443673), wk =   0.0075193
        k(  228) = (  -0.0000000   0.3136557  -0.1381042), wk =   0.0075524
        k(  229) = (  -0.0000000   0.3214971  -0.1318412), wk =   0.0075855
        k(  230) = (  -0.0000000   0.3293385  -0.1255781), wk =   0.0076187
        k(  231) = (  -0.0000000   0.3371799  -0.1193151), wk =   0.0076518
        k(  232) = (  -0.0000000   0.3450213  -0.1130520), wk =   0.0076849
        k(  233) = (   0.4907407  -0.0119077  -0.1923031), wk =   0.0077180
        k(  234) = (   0.4814815  -0.0116831   0.1926189), wk =   0.0077512
        k(  235) = (   0.4722222  -0.0114584   0.1889147), wk =   0.0077843
        k(  236) = (   0.4629630  -0.0112337   0.1852105), wk =   0.0078174
        k(  237) = (   0.4537037  -0.0110090   0.1815063), wk =   0.0078505
        k(  238) = (   0.4444444  -0.0107844   0.1778020), wk =   0.0078837
        k(  239) = (   0.4351852  -0.0105597   0.1740978), wk =   0.0079168
        k(  240) = (   0.4259259  -0.0103350   0.1703936), wk =   0.0079499
        k(  241) = (   0.4166667  -0.0101103   0.1666894), wk =   0.0079830
        k(  242) = (   0.4074074  -0.0098857   0.1629852), wk =   0.0080162
        k(  243) = (   0.3981481  -0.0096610   0.1592810), wk =   0.0080493
        k(  244) = (   0.3888889  -0.0094363   0.1555768), wk =   0.0080824
        k(  245) = (   0.3796296  -0.0092117   0.1518726), wk =   0.0081155
        k(  246) = (   0.3703704  -0.0089870   0.1481684), wk =   0.0081487
        k(  247) = (   0.3611111  -0.0087623   0.1444642), wk =   0.0081818
        k(  248) = (   0.3518519  -0.0085376   0.1407600), wk =   0.0082149
        k(  249) = (   0.3425926  -0.0083130   0.1370557), wk =   0.0082480
        k(  250) = (   0.3333333  -0.0080883   0.1333515), wk =   0.0082812
        k(  251) = (   0.3240741  -0.0078636   0.1296473), wk =   0.0083143
        k(  252) = (   0.3148148  -0.0076389   0.1259431), wk =   0.0083474
        k(  253) = (   0.3055556  -0.0074143   0.1222389), wk =   0.0083805
        k(  254) = (   0.2962963  -0.0071896   0.1185347), wk =   0.0084137
        k(  255) = (   0.2870370  -0.0069649   0.1148305), wk =   0.0084468
        k(  256) = (   0.2777778  -0.0067402   0.1111263), wk =   0.0084799
        k(  257) = (   0.2685185  -0.0065156   0.1074221), wk =   0.0085130
        k(  258) = (   0.2592593  -0.0062909   0.1037179), wk =   0.0085462
        k(  259) = (   0.2500000  -0.0060662   0.1000136), wk =   0.0085793
        k(  260) = (   0.2407407  -0.0058415   0.0963094), wk =   0.0086124
        k(  261) = (   0.2314815  -0.0056169   0.0926052), wk =   0.0086455
        k(  262) = (   0.2222222  -0.0053922   0.0889010), wk =   0.0086787
        k(  263) = (   0.2129630  -0.0051675   0.0851968), wk =   0.0087118
        k(  264) = (   0.2037037  -0.0049428   0.0814926), wk =   0.0087449
        k(  265) = (   0.1944444  -0.0047182   0.0777884), wk =   0.0087780
        k(  266) = (   0.1851852  -0.0044935   0.0740842), wk =   0.0088112
        k(  267) = (   0.1759259  -0.0042688   0.0703800), wk =   0.0088443
        k(  268) = (   0.1666667  -0.0040441   0.0666758), wk =   0.0088774
        k(  269) = (   0.1574074  -0.0038195   0.0629716), wk =   0.0089105
        k(  270) = (   0.1481481  -0.0035948   0.0592673), wk =   0.0089437
        k(  271) = (   0.1388889  -0.0033701   0.0555631), wk =   0.0089768
        k(  272) = (   0.1296296  -0.0031454   0.0518589), wk =   0.0090099
        k(  273) = (   0.1203704  -0.0029208   0.0481547), wk =   0.0090430
        k(  274) = (   0.1111111  -0.0026961   0.0444505), wk =   0.0090762
        k(  275) = (   0.1018519  -0.0024714   0.0407463), wk =   0.0091093
        k(  276) = (   0.0925926  -0.0022467   0.0370421), wk =   0.0091424
        k(  277) = (   0.0833333  -0.0020221   0.0333379), wk =   0.0091755
        k(  278) = (   0.0740741  -0.0017974   0.0296337), wk =   0.0092087
        k(  279) = (   0.0648148  -0.0015727   0.0259295), wk =   0.0092418
        k(  280) = (   0.0555556  -0.0013480   0.0222253), wk =   0.0092749
        k(  281) = (   0.0462963  -0.0011234   0.0185210), wk =   0.0093080
        k(  282) = (   0.0370370  -0.0008987   0.0148168), wk =   0.0093412
        k(  283) = (   0.0277778  -0.0006740   0.0111126), wk =   0.0093743
        k(  284) = (   0.0185185  -0.0004493   0.0074084), wk =   0.0094074
        k(  285) = (   0.0092593  -0.0002247   0.0037042), wk =   0.0094405
        k(  286) = (  -0.0079365   0.0057936   0.0012986), wk =   0.0094736
        k(  287) = (  -0.0158730   0.0115871   0.0025971), wk =   0.0095068
        k(  288) = (  -0.0238095   0.0173807   0.0038957), wk =   0.0095399
        k(  289) = (  -0.0317460   0.0231743   0.0051943), wk =   0.0095730
        k(  290) = (  -0.0396825   0.0289679   0.0064928), wk =   0.0096061
        k(  291) = (  -0.0476190   0.0347614   0.0077914), wk =   0.0096393
        k(  292) = (  -0.0555556   0.0405550   0.0090900), wk =   0.0096724
        k(  293) = (  -0.0634921   0.0463486   0.0103886), wk =   0.0097055
        k(  294) = (  -0.0714286   0.0521422   0.0116871), wk =   0.0097386
        k(  295) = (  -0.0793651   0.0579357   0.0129857), wk =   0.0097718
        k(  296) = (  -0.0873016   0.0637293   0.0142843), wk =   0.0098049
        k(  297) = (  -0.0952381   0.0695229   0.0155828), wk =   0.0098380
        k(  298) = (  -0.1031746   0.0753165   0.0168814), wk =   0.0098711
        k(  299) = (  -0.1111111   0.0811100   0.0181800), wk =   0.0099043
        k(  300) = (  -0.1190476   0.0869036   0.0194785), wk =   0.0099374
        k(  301) = (  -0.1269841   0.0926972   0.0207771), wk =   0.0099705
        k(  302) = (  -0.1349206   0.0984907   0.0220757), wk =   0.0100036
        k(  303) = (  -0.1428571   0.1042843   0.0233743), wk =   0.0100368
        k(  304) = (  -0.1507937   0.1100779   0.0246728), wk =   0.0100699
        k(  305) = (  -0.1587302   0.1158715   0.0259714), wk =   0.0101030
        k(  306) = (  -0.1666667   0.1216650   0.0272700), wk =   0.0101361
        k(  307) = (  -0.1746032   0.1274586   0.0285685), wk =   0.0101693
        k(  308) = (  -0.1825397   0.1332522   0.0298671), wk =   0.0102024
        k(  309) = (  -0.1904762   0.1390458   0.0311657), wk =   0.0102355
        k(  310) = (  -0.1984127   0.1448393   0.0324642), wk =   0.0102686
        k(  311) = (  -0.2063492   0.1506329   0.0337628), wk =   0.0103018
        k(  312) = (  -0.2142857   0.1564265   0.0350614), wk =   0.0103349
        k(  313) = (  -0.2222222   0.1622201   0.0363600), wk =   0.0103680
        k(  314) = (  -0.2301587   0.1680136   0.0376585), wk =   0.0104011
        k(  315) = (  -0.2380952   0.1738072   0.0389571), wk =   0.0104343
        k(  316) = (  -0.2460317   0.1796008   0.0402557), wk =   0.0104674
        k(  317) = (  -0.2539683   0.1853944   0.0415542), wk =   0.0105005
        k(  318) = (  -0.2619048   0.1911879   0.0428528), wk =   0.0105336
        k(  319) = (  -0.2698413   0.1969815   0.0441514), wk =   0.0105668
        k(  320) = (  -0.2777778   0.2027751   0.0454499), wk =   0.0105999
        k(  321) = (  -0.2857143   0.2085686   0.0467485), wk =   0.0106330
        k(  322) = (  -0.2936508   0.2143622   0.0480471), wk =   0.0106661
        k(  323) = (  -0.3015873   0.2201558   0.0493456), wk =   0.0106993
        k(  324) = (  -0.3095238   0.2259494   0.0506442), wk =   0.0107324
        k(  325) = (  -0.3174603   0.2317429   0.0519428), wk =   0.0107655
        k(  326) = (  -0.3253968   0.2375365   0.0532414), wk =   0.0107986
        k(  327) = (  -0.3333333   0.2433301   0.0545399), wk =   0.0108318
        k(  328) = (  -0.3412698   0.2491237   0.0558385), wk =   0.0108649
        k(  329) = (  -0.3492063   0.2549172   0.0571371), wk =   0.0108980
        k(  330) = (  -0.3571429   0.2607108   0.0584356), wk =   0.0109311
        k(  331) = (  -0.3650794   0.2665044   0.0597342), wk =   0.0109643
        k(  332) = (  -0.3730159   0.2722980   0.0610328), wk =   0.0109974
        k(  333) = (  -0.3809524   0.2780915   0.0623313), wk =   0.0110305
        k(  334) = (  -0.3888889   0.2838851   0.0636299), wk =   0.0110636
        k(  335) = (  -0.3968254   0.2896787   0.0649285), wk =   0.0110968
        k(  336) = (  -0.4047619   0.2954722   0.0662271), wk =   0.0111299
        k(  337) = (  -0.4126984   0.3012658   0.0675256), wk =   0.0111630
        k(  338) = (  -0.4206349   0.3070594   0.0688242), wk =   0.0111961
        k(  339) = (  -0.4285714   0.3128530   0.0701228), wk =   0.0112293
        k(  340) = (  -0.4365079   0.3186465   0.0714213), wk =   0.0112624
        k(  341) = (  -0.4444444   0.3244401   0.0727199), wk =   0.0112955
        k(  342) = (  -0.4523810   0.3302337   0.0740185), wk =   0.0113286
        k(  343) = (  -0.4603175   0.3360273   0.0753170), wk =   0.0113618
        k(  344) = (  -0.4682540   0.3418208   0.0766156), wk =   0.0113949
        k(  345) = (  -0.4761905   0.3476144   0.0779142), wk =   0.0114280
        k(  346) = (  -0.4841270   0.3534080   0.0792128), wk =   0.0114611
        k(  347) = (  -0.4920635  -0.3465239  -0.0945369), wk =   0.0114943

                       cryst. coord.
        k(    1) = (   0.0000000   0.0000000   0.0000000), wk =   0.0000331
        k(    2) = (   0.0094340   0.0000000   0.0000000), wk =   0.0000662
        k(    3) = (   0.0188679   0.0000000  -0.0000001), wk =   0.0000994
        k(    4) = (   0.0283019   0.0000001  -0.0000001), wk =   0.0001325
        k(    5) = (   0.0377358  -0.0000001   0.0000001), wk =   0.0001656
        k(    6) = (   0.0471698  -0.0000000  -0.0000001), wk =   0.0001987
        k(    7) = (   0.0566038  -0.0000000  -0.0000001), wk =   0.0002319
        k(    8) = (   0.0660377  -0.0000000   0.0000001), wk =   0.0002650
        k(    9) = (   0.0754717   0.0000000   0.0000001), wk =   0.0002981
        k(   10) = (   0.0849057   0.0000000  -0.0000001), wk =   0.0003312
        k(   11) = (   0.0943396   0.0000000   0.0000000), wk =   0.0003644
        k(   12) = (   0.1037736   0.0000001   0.0000000), wk =   0.0003975
        k(   13) = (   0.1132075  -0.0000001  -0.0000000), wk =   0.0004306
        k(   14) = (   0.1226415  -0.0000000   0.0000000), wk =   0.0004637
        k(   15) = (   0.1320755  -0.0000000   0.0000001), wk =   0.0004969
        k(   16) = (   0.1415094   0.0000000  -0.0000001), wk =   0.0005300
        k(   17) = (   0.1509434   0.0000000  -0.0000000), wk =   0.0005631
        k(   18) = (   0.1603774   0.0000000  -0.0000000), wk =   0.0005962
        k(   19) = (   0.1698113   0.0000001  -0.0000001), wk =   0.0006294
        k(   20) = (   0.1792453  -0.0000001  -0.0000000), wk =   0.0006625
        k(   21) = (   0.1886792  -0.0000000   0.0000001), wk =   0.0006956
        k(   22) = (   0.1981132  -0.0000000   0.0000001), wk =   0.0007287
        k(   23) = (   0.2075472  -0.0000000  -0.0000001), wk =   0.0007619
        k(   24) = (   0.2169811   0.0000000   0.0000000), wk =   0.0007950
        k(   25) = (   0.2264151   0.0000000   0.0000001), wk =   0.0008281
        k(   26) = (   0.2358491   0.0000001  -0.0000002), wk =   0.0008612
        k(   27) = (   0.2452830  -0.0000001   0.0000000), wk =   0.0008944
        k(   28) = (   0.2547170  -0.0000000   0.0000001), wk =   0.0009275
        k(   29) = (   0.2641509  -0.0000000  -0.0000000), wk =   0.0009606
        k(   30) = (   0.2735849  -0.0000000  -0.0000000), wk =   0.0009937
        k(   31) = (   0.2830189   0.0000000   0.0000000), wk =   0.0010269
        k(   32) = (   0.2924528   0.0000000  -0.0000001), wk =   0.0010600
        k(   33) = (   0.3018868   0.0000000  -0.0000001), wk =   0.0010931
        k(   34) = (   0.3113208   0.0000001  -0.0000000), wk =   0.0011262
        k(   35) = (   0.3207547  -0.0000001   0.0000002), wk =   0.0011594
        k(   36) = (   0.3301887  -0.0000000  -0.0000001), wk =   0.0011925
        k(   37) = (   0.3396226  -0.0000000   0.0000001), wk =   0.0012256
        k(   38) = (   0.3490566   0.0000000   0.0000001), wk =   0.0012587
        k(   39) = (   0.3584906   0.0000000  -0.0000001), wk =   0.0012919
        k(   40) = (   0.3679245   0.0000000  -0.0000000), wk =   0.0013250
        k(   41) = (   0.3773585   0.0000001   0.0000000), wk =   0.0013581
        k(   42) = (   0.3867925  -0.0000001  -0.0000001), wk =   0.0013912
        k(   43) = (   0.3962264  -0.0000000   0.0000000), wk =   0.0014244
        k(   44) = (   0.4056604  -0.0000000   0.0000000), wk =   0.0014575
        k(   45) = (   0.4150943  -0.0000000   0.0000002), wk =   0.0014906
        k(   46) = (   0.4245283   0.0000000  -0.0000001), wk =   0.0015237
        k(   47) = (   0.4339623   0.0000000  -0.0000000), wk =   0.0015569
        k(   48) = (   0.4433962   0.0000001   0.0000001), wk =   0.0015900
        k(   49) = (   0.4528302  -0.0000001  -0.0000000), wk =   0.0016231
        k(   50) = (   0.4622642  -0.0000000  -0.0000000), wk =   0.0016562
        k(   51) = (   0.4716981  -0.0000000   0.0000001), wk =   0.0016894
        k(   52) = (   0.4811321  -0.0000000  -0.0000001), wk =   0.0017225
        k(   53) = (   0.4905660   0.0000000   0.0000000), wk =   0.0017556
        k(   54) = (   0.5000000   0.0000000   0.0000001), wk =   0.0017887
        k(   55) = (   0.0000000   0.5000000   0.0000000), wk =   0.0018219
        k(   56) = (   0.0000000   0.4861112  -0.0000001), wk =   0.0018550
        k(   57) = (   0.0000000   0.4722222   0.0000001), wk =   0.0018881
        k(   58) = (   0.0000000   0.4583334  -0.0000000), wk =   0.0019212
        k(   59) = (   0.0000000   0.4444444  -0.0000001), wk =   0.0019544
        k(   60) = (   0.0000000   0.4305556   0.0000001), wk =   0.0019875
        k(   61) = (   0.0000000   0.4166667  -0.0000001), wk =   0.0020206
        k(   62) = (   0.0000000   0.4027778   0.0000001), wk =   0.0020537
        k(   63) = (   0.0000000   0.3888889  -0.0000000), wk =   0.0020869
        k(   64) = (   0.0000000   0.3750000  -0.0000001), wk =   0.0021200
        k(   65) = (   0.0000000   0.3611111   0.0000001), wk =   0.0021531
        k(   66) = (   0.0000000   0.3472223  -0.0000001), wk =   0.0021862
        k(   67) = (   0.0000000   0.3333333   0.0000001), wk =   0.0022194
        k(   68) = (   0.0000000   0.3194445  -0.0000000), wk =   0.0022525
        k(   69) = (   0.0000000   0.3055555  -0.0000001), wk =   0.0022856
        k(   70) = (   0.0000000   0.2916667   0.0000001), wk =   0.0023187
        k(   71) = (   0.0000000   0.2777777  -0.0000000), wk =   0.0023519
        k(   72) = (   0.0000000   0.2638889   0.0000001), wk =   0.0023850
        k(   73) = (   0.0000000   0.2500001  -0.0000000), wk =   0.0024181
        k(   74) = (   0.0000000   0.2361111  -0.0000001), wk =   0.0024512
        k(   75) = (   0.0000000   0.2222223   0.0000001), wk =   0.0024843
        k(   76) = (   0.0000000   0.2083333  -0.0000000), wk =   0.0025175
        k(   77) = (   0.0000000   0.1944445  -0.0000001), wk =   0.0025506
        k(   78) = (   0.0000000   0.1805555   0.0000001), wk =   0.0025837
        k(   79) = (   0.0000000   0.1666667  -0.0000001), wk =   0.0026168
        k(   80) = (   0.0000000   0.1527778   0.0000001), wk =   0.0026500
        k(   81) = (   0.0000000   0.1388889  -0.0000000), wk =   0.0026831
        k(   82) = (   0.0000000   0.1250000  -0.0000001), wk =   0.0027162
        k(   83) = (   0.0000000   0.1111111   0.0000001), wk =   0.0027493
        k(   84) = (   0.0000000   0.0972222  -0.0000001), wk =   0.0027825
        k(   85) = (   0.0000000   0.0833334   0.0000001), wk =   0.0028156
        k(   86) = (   0.0000000   0.0694444  -0.0000000), wk =   0.0028487
        k(   87) = (   0.0000000   0.0555556  -0.0000001), wk =   0.0028818
        k(   88) = (   0.0000000   0.0416666   0.0000001), wk =   0.0029150
        k(   89) = (   0.0000000   0.0277778  -0.0000001), wk =   0.0029481
        k(   90) = (   0.0000000   0.0138888   0.0000001), wk =   0.0029812
        k(   91) = (   0.0000000   0.0000000   0.0263158), wk =   0.0030143
        k(   92) = (   0.0000000   0.0000000   0.0526316), wk =   0.0030475
        k(   93) = (   0.0000000   0.0000000   0.0789473), wk =   0.0030806
        k(   94) = (   0.0000000   0.0000000   0.1052631), wk =   0.0031137
        k(   95) = (   0.0000000   0.0000000   0.1315789), wk =   0.0031468
        k(   96) = (   0.0000000   0.0000000   0.1578947), wk =   0.0031800
        k(   97) = (   0.0000000   0.0000000   0.1842104), wk =   0.0032131
        k(   98) = (   0.0000000   0.0000000   0.2105262), wk =   0.0032462
        k(   99) = (   0.0000000   0.0000000   0.2368420), wk =   0.0032793
        k(  100) = (   0.0000000   0.0000000   0.2631578), wk =   0.0033125
        k(  101) = (   0.0000000   0.0000000   0.2894738), wk =   0.0033456
        k(  102) = (   0.0000000   0.0000000   0.3157896), wk =   0.0033787
        k(  103) = (   0.0000000   0.0000000   0.3421054), wk =   0.0034118
        k(  104) = (   0.0000000   0.0000000   0.3684211), wk =   0.0034450
        k(  105) = (   0.0000000   0.0000000   0.3947369), wk =   0.0034781
        k(  106) = (   0.0000000   0.0000000   0.4210527), wk =   0.0035112
        k(  107) = (   0.0000000   0.0000000   0.4473685), wk =   0.0035443
        k(  108) = (   0.0000000   0.0000000   0.4736843), wk =   0.0035775
        k(  109) = (   0.0000000   0.0000000   0.5000000), wk =   0.0036106
        k(  110) = (   0.0000000  -0.0000000  -0.4736843), wk =   0.0036437
        k(  111) = (   0.0000000  -0.0000000  -0.4473685), wk =   0.0036768
        k(  112) = (   0.0000000  -0.0000000  -0.4210527), wk =   0.0037100
        k(  113) = (   0.0000000  -0.0000000  -0.3947369), wk =   0.0037431
        k(  114) = (   0.0000000  -0.0000000  -0.3684211), wk =   0.0037762
        k(  115) = (   0.0000000  -0.0000000  -0.3421054), wk =   0.0038093
        k(  116) = (   0.0000000  -0.0000000  -0.3157896), wk =   0.0038425
        k(  117) = (   0.0000000  -0.0000000  -0.2894738), wk =   0.0038756
        k(  118) = (   0.0000000  -0.0000000  -0.2631578), wk =   0.0039087
        k(  119) = (   0.0000000  -0.0000000  -0.2368420), wk =   0.0039418
        k(  120) = (   0.0000000  -0.0000000  -0.2105262), wk =   0.0039750
        k(  121) = (   0.0000000  -0.0000000  -0.1842104), wk =   0.0040081
        k(  122) = (   0.0000000  -0.0000000  -0.1578947), wk =   0.0040412
        k(  123) = (   0.0000000  -0.0000000  -0.1315789), wk =   0.0040743
        k(  124) = (   0.0000000  -0.0000000  -0.1052631), wk =   0.0041075
        k(  125) = (   0.0000000  -0.0000000  -0.0789473), wk =   0.0041406
        k(  126) = (   0.0000000  -0.0000000  -0.0526316), wk =   0.0041737
        k(  127) = (   0.0000000  -0.0000000  -0.0263158), wk =   0.0042068
        k(  128) = (   0.5000000   0.5000000  -1.0000000), wk =   0.0042400
        k(  129) = (  -0.4918033  -0.4918033   0.9836066), wk =   0.0042731
        k(  130) = (  -0.4836066  -0.4836065   0.9672131), wk =   0.0043062
        k(  131) = (  -0.4754098  -0.4754099   0.9508196), wk =   0.0043393
        k(  132) = (  -0.4672131  -0.4672131   0.9344261), wk =   0.0043725
        k(  133) = (  -0.4590164  -0.4590164   0.9180327), wk =   0.0044056
        k(  134) = (  -0.4508197  -0.4508196   0.9016393), wk =   0.0044387
        k(  135) = (  -0.4426230  -0.4426230   0.8852459), wk =   0.0044718
        k(  136) = (  -0.4344262  -0.4344263   0.8688524), wk =   0.0045050
        k(  137) = (  -0.4262295  -0.4262295   0.8524589), wk =   0.0045381
        k(  138) = (  -0.4180328  -0.4180328   0.8360655), wk =   0.0045712
        k(  139) = (  -0.4098361  -0.4098360   0.8196720), wk =   0.0046043
        k(  140) = (  -0.4016393  -0.4016394   0.8032788), wk =   0.0046375
        k(  141) = (  -0.3934426  -0.3934426   0.7868853), wk =   0.0046706
        k(  142) = (  -0.3852459  -0.3852459   0.7704919), wk =   0.0047037
        k(  143) = (  -0.3770492  -0.3770492   0.7540985), wk =   0.0047368
        k(  144) = (  -0.3688525  -0.3688524   0.7377050), wk =   0.0047699
        k(  145) = (  -0.3606557  -0.3606558   0.7213115), wk =   0.0048031
        k(  146) = (  -0.3524590  -0.3524590   0.7049181), wk =   0.0048362
        k(  147) = (  -0.3442623  -0.3442623   0.6885247), wk =   0.0048693
        k(  148) = (  -0.3360656  -0.3360655   0.6721312), wk =   0.0049024
        k(  149) = (  -0.3278689  -0.3278689   0.6557378), wk =   0.0049356
        k(  150) = (  -0.3196721  -0.3196722   0.6393443), wk =   0.0049687
        k(  151) = (  -0.3114754  -0.3114754   0.6229508), wk =   0.0050018
        k(  152) = (  -0.3032787  -0.3032787   0.6065574), wk =   0.0050349
        k(  153) = (  -0.2950820  -0.2950819   0.5901640), wk =   0.0050681
        k(  154) = (  -0.2868852  -0.2868853   0.5737705), wk =   0.0051012
        k(  155) = (  -0.2786885  -0.2786885   0.5573770), wk =   0.0051343
        k(  156) = (  -0.2704918  -0.2704918   0.5409836), wk =   0.0051674
        k(  157) = (  -0.2622951  -0.2622951   0.5245902), wk =   0.0052006
        k(  158) = (  -0.2540984  -0.2540983   0.5081967), wk =   0.0052337
        k(  159) = (  -0.2459016  -0.2459017   0.4918032), wk =   0.0052668
        k(  160) = (  -0.2377049  -0.2377049   0.4754098), wk =   0.0052999
        k(  161) = (  -0.2295082  -0.2295082   0.4590164), wk =   0.0053331
        k(  162) = (  -0.2213115  -0.2213114   0.4426229), wk =   0.0053662
        k(  163) = (  -0.2131148  -0.2131147   0.4262295), wk =   0.0053993
        k(  164) = (  -0.2049180  -0.2049181   0.4098360), wk =   0.0054324
        k(  165) = (  -0.1967213  -0.1967213   0.3934425), wk =   0.0054656
        k(  166) = (  -0.1885246  -0.1885246   0.3770491), wk =   0.0054987
        k(  167) = (  -0.1803279  -0.1803278   0.3606557), wk =   0.0055318
        k(  168) = (  -0.1721311  -0.1721312   0.3442622), wk =   0.0055649
        k(  169) = (  -0.1639344  -0.1639345   0.3278688), wk =   0.0055981
        k(  170) = (  -0.1557377  -0.1557377   0.3114753), wk =   0.0056312
        k(  171) = (  -0.1475410  -0.1475410   0.2950819), wk =   0.0056643
        k(  172) = (  -0.1393443  -0.1393442   0.2786884), wk =   0.0056974
        k(  173) = (  -0.1311475  -0.1311476   0.2622952), wk =   0.0057306
        k(  174) = (  -0.1229508  -0.1229508   0.2459017), wk =   0.0057637
        k(  175) = (  -0.1147541  -0.1147541   0.2295083), wk =   0.0057968
        k(  176) = (  -0.1065574  -0.1065574   0.2131149), wk =   0.0058299
        k(  177) = (  -0.0983607  -0.0983606   0.1967214), wk =   0.0058631
        k(  178) = (  -0.0901639  -0.0901640   0.1803279), wk =   0.0058962
        k(  179) = (  -0.0819672  -0.0819672   0.1639345), wk =   0.0059293
        k(  180) = (  -0.0737705  -0.0737705   0.1475411), wk =   0.0059624
        k(  181) = (  -0.0655738  -0.0655737   0.1311476), wk =   0.0059956
        k(  182) = (  -0.0573770  -0.0573771   0.1147541), wk =   0.0060287
        k(  183) = (  -0.0491803  -0.0491804   0.0983607), wk =   0.0060618
        k(  184) = (  -0.0409836  -0.0409836   0.0819672), wk =   0.0060949
        k(  185) = (  -0.0327869  -0.0327869   0.0655738), wk =   0.0061281
        k(  186) = (  -0.0245902  -0.0245901   0.0491804), wk =   0.0061612
        k(  187) = (  -0.0163934  -0.0163935   0.0327869), wk =   0.0061943
        k(  188) = (  -0.0081967  -0.0081967   0.0163934), wk =   0.0062274
        k(  189) = (   0.0000000  -0.0111111   0.0222221), wk =   0.0062606
        k(  190) = (   0.0000000  -0.0222222   0.0444445), wk =   0.0062937
        k(  191) = (   0.0000000  -0.0333334   0.0666666), wk =   0.0063268
        k(  192) = (   0.0000000  -0.0444445   0.0888889), wk =   0.0063599
        k(  193) = (   0.0000000  -0.0555556   0.1111110), wk =   0.0063931
        k(  194) = (   0.0000000  -0.0666667   0.1333334), wk =   0.0064262
        k(  195) = (   0.0000000  -0.0777778   0.1555555), wk =   0.0064593
        k(  196) = (   0.0000000  -0.0888888   0.1777778), wk =   0.0064924
        k(  197) = (   0.0000000  -0.0999999   0.1999999), wk =   0.0065256
        k(  198) = (   0.0000000  -0.1111111   0.2222222), wk =   0.0065587
        k(  199) = (   0.0000000  -0.1222222   0.2444443), wk =   0.0065918
        k(  200) = (   0.0000000  -0.1333333   0.2666667), wk =   0.0066249
        k(  201) = (   0.0000000  -0.1444444   0.2888888), wk =   0.0066581
        k(  202) = (   0.0000000  -0.1555555   0.3111112), wk =   0.0066912
        k(  203) = (   0.0000000  -0.1666667   0.3333333), wk =   0.0067243
        k(  204) = (   0.0000000  -0.1777778   0.3555556), wk =   0.0067574
        k(  205) = (   0.0000000  -0.1888889   0.3777777), wk =   0.0067906
        k(  206) = (   0.0000000  -0.2000000   0.4000001), wk =   0.0068237
        k(  207) = (   0.0000000  -0.2111111   0.4222222), wk =   0.0068568
        k(  208) = (   0.0000000  -0.2222223   0.4444445), wk =   0.0068899
        k(  209) = (   0.0000000  -0.2333334   0.4666666), wk =   0.0069231
        k(  210) = (   0.0000000  -0.2444445   0.4888890), wk =   0.0069562
        k(  211) = (   0.0000000  -0.2555556   0.5111111), wk =   0.0069893
        k(  212) = (   0.0000000  -0.2666666   0.5333334), wk =   0.0070224
        k(  213) = (   0.0000000  -0.2777777   0.5555555), wk =   0.0070556
        k(  214) = (   0.0000000  -0.2888888   0.5777778), wk =   0.0070887
        k(  215) = (   0.0000000  -0.3000000   0.5999999), wk =   0.0071218
        k(  216) = (   0.0000000  -0.3111111   0.6222223), wk =   0.0071549
        k(  217) = (   0.0000000  -0.3222222   0.6444444), wk =   0.0071880
        k(  218) = (   0.0000000  -0.3333333   0.6666668), wk =   0.0072212
        k(  219) = (   0.0000000  -0.3444444   0.6888889), wk =   0.0072543
        k(  220) = (   0.0000000  -0.3555556  -0.2888888), wk =   0.0072874
        k(  221) = (   0.0000000  -0.3666667  -0.2666667), wk =   0.0073205
        k(  222) = (   0.0000000  -0.3777778  -0.2444444), wk =   0.0073537
        k(  223) = (   0.0000000  -0.3888889  -0.2222223), wk =   0.0073868
        k(  224) = (   0.0000000  -0.4000000  -0.1999999), wk =   0.0074199
        k(  225) = (   0.0000000  -0.4111112  -0.1777778), wk =   0.0074530
        k(  226) = (   0.0000000  -0.4222223  -0.1555555), wk =   0.0074862
        k(  227) = (   0.0000000  -0.4333334  -0.1333334), wk =   0.0075193
        k(  228) = (   0.0000000  -0.4444444  -0.1111111), wk =   0.0075524
        k(  229) = (   0.0000000  -0.4555555  -0.0888890), wk =   0.0075855
        k(  230) = (   0.0000000  -0.4666666  -0.0666666), wk =   0.0076187
        k(  231) = (   0.0000000  -0.4777777  -0.0444445), wk =   0.0076518
        k(  232) = (   0.0000000  -0.4888889  -0.0222222), wk =   0.0076849
        k(  233) = (  -0.4907407  -0.0000001  -0.0185186), wk =   0.0077180
        k(  234) = (  -0.4814815   0.0000000   0.9629630), wk =   0.0077512
        k(  235) = (  -0.4722222   0.0000000   0.9444445), wk =   0.0077843
        k(  236) = (  -0.4629630  -0.0000000   0.9259261), wk =   0.0078174
        k(  237) = (  -0.4537037  -0.0000001   0.9074076), wk =   0.0078505
        k(  238) = (  -0.4444444   0.0000000   0.8888887), wk =   0.0078837
        k(  239) = (  -0.4351852   0.0000000   0.8703703), wk =   0.0079168
        k(  240) = (  -0.4259259  -0.0000000   0.8518518), wk =   0.0079499
        k(  241) = (  -0.4166667  -0.0000001   0.8333334), wk =   0.0079830
        k(  242) = (  -0.4074074   0.0000000   0.8148148), wk =   0.0080162
        k(  243) = (  -0.3981481   0.0000000   0.7962963), wk =   0.0080493
        k(  244) = (  -0.3888889  -0.0000000   0.7777778), wk =   0.0080824
        k(  245) = (  -0.3796296   0.0000001   0.7592592), wk =   0.0081155
        k(  246) = (  -0.3703704   0.0000000   0.7407408), wk =   0.0081487
        k(  247) = (  -0.3611111  -0.0000000   0.7222223), wk =   0.0081818
        k(  248) = (  -0.3518519  -0.0000000   0.7037039), wk =   0.0082149
        k(  249) = (  -0.3425926   0.0000001   0.6851850), wk =   0.0082480
        k(  250) = (  -0.3333333   0.0000000   0.6666665), wk =   0.0082812
        k(  251) = (  -0.3240741  -0.0000000   0.6481481), wk =   0.0083143
        k(  252) = (  -0.3148148  -0.0000000   0.6296296), wk =   0.0083474
        k(  253) = (  -0.3055556   0.0000001   0.6111111), wk =   0.0083805
        k(  254) = (  -0.2962963   0.0000000   0.5925926), wk =   0.0084137
        k(  255) = (  -0.2870370  -0.0000000   0.5740741), wk =   0.0084468
        k(  256) = (  -0.2777778  -0.0000000   0.5555557), wk =   0.0084799
        k(  257) = (  -0.2685185   0.0000001   0.5370371), wk =   0.0085130
        k(  258) = (  -0.2592593   0.0000000   0.5185187), wk =   0.0085462
        k(  259) = (  -0.2500000  -0.0000000   0.4999999), wk =   0.0085793
        k(  260) = (  -0.2407407  -0.0000000   0.4814814), wk =   0.0086124
        k(  261) = (  -0.2314815   0.0000001   0.4629629), wk =   0.0086455
        k(  262) = (  -0.2222222   0.0000000   0.4444444), wk =   0.0086787
        k(  263) = (  -0.2129630  -0.0000000   0.4259259), wk =   0.0087118
        k(  264) = (  -0.2037037  -0.0000001   0.4074074), wk =   0.0087449
        k(  265) = (  -0.1944444   0.0000001   0.3888888), wk =   0.0087780
        k(  266) = (  -0.1851852   0.0000000   0.3703704), wk =   0.0088112
        k(  267) = (  -0.1759259  -0.0000000   0.3518519), wk =   0.0088443
        k(  268) = (  -0.1666667  -0.0000001   0.3333335), wk =   0.0088774
        k(  269) = (  -0.1574074   0.0000000   0.3148149), wk =   0.0089105
        k(  270) = (  -0.1481481   0.0000000   0.2962961), wk =   0.0089437
        k(  271) = (  -0.1388889  -0.0000000   0.2777777), wk =   0.0089768
        k(  272) = (  -0.1296296  -0.0000001   0.2592592), wk =   0.0090099
        k(  273) = (  -0.1203704   0.0000000   0.2407407), wk =   0.0090430
        k(  274) = (  -0.1111111   0.0000000   0.2222222), wk =   0.0090762
        k(  275) = (  -0.1018519  -0.0000000   0.2037038), wk =   0.0091093
        k(  276) = (  -0.0925926  -0.0000001   0.1851852), wk =   0.0091424
        k(  277) = (  -0.0833333   0.0000000   0.1666667), wk =   0.0091755
        k(  278) = (  -0.0740741   0.0000000   0.1481482), wk =   0.0092087
        k(  279) = (  -0.0648148  -0.0000000   0.1296297), wk =   0.0092418
        k(  280) = (  -0.0555556  -0.0000001   0.1111113), wk =   0.0092749
        k(  281) = (  -0.0462963   0.0000000   0.0925925), wk =   0.0093080
        k(  282) = (  -0.0370370   0.0000000   0.0740739), wk =   0.0093412
        k(  283) = (  -0.0277778  -0.0000000   0.0555555), wk =   0.0093743
        k(  284) = (  -0.0185185  -0.0000001   0.0370370), wk =   0.0094074
        k(  285) = (  -0.0092593   0.0000000   0.0185185), wk =   0.0094405
        k(  286) = (   0.0079365  -0.0079365   0.0000001), wk =   0.0094736
        k(  287) = (   0.0158730  -0.0158729  -0.0000001), wk =   0.0095068
        k(  288) = (   0.0238095  -0.0238095  -0.0000000), wk =   0.0095399
        k(  289) = (   0.0317460  -0.0317460   0.0000001), wk =   0.0095730
        k(  290) = (   0.0396825  -0.0396826  -0.0000001), wk =   0.0096061
        k(  291) = (   0.0476190  -0.0476190  -0.0000000), wk =   0.0096393
        k(  292) = (   0.0555556  -0.0555555  -0.0000000), wk =   0.0096724
        k(  293) = (   0.0634921  -0.0634921   0.0000001), wk =   0.0097055
        k(  294) = (   0.0714286  -0.0714286  -0.0000001), wk =   0.0097386
        k(  295) = (   0.0793651  -0.0793650  -0.0000000), wk =   0.0097718
        k(  296) = (   0.0873016  -0.0873016   0.0000001), wk =   0.0098049
        k(  297) = (   0.0952381  -0.0952381  -0.0000001), wk =   0.0098380
        k(  298) = (   0.1031746  -0.1031747   0.0000000), wk =   0.0098711
        k(  299) = (   0.1111111  -0.1111111   0.0000001), wk =   0.0099043
        k(  300) = (   0.1190476  -0.1190476  -0.0000001), wk =   0.0099374
        k(  301) = (   0.1269841  -0.1269842   0.0000000), wk =   0.0099705
        k(  302) = (   0.1349206  -0.1349206   0.0000000), wk =   0.0100036
        k(  303) = (   0.1428571  -0.1428571   0.0000001), wk =   0.0100368
        k(  304) = (   0.1507937  -0.1507937  -0.0000001), wk =   0.0100699
        k(  305) = (   0.1587302  -0.1587302  -0.0000000), wk =   0.0101030
        k(  306) = (   0.1666667  -0.1666666   0.0000000), wk =   0.0101361
        k(  307) = (   0.1746032  -0.1746031  -0.0000001), wk =   0.0101693
        k(  308) = (   0.1825397  -0.1825397  -0.0000000), wk =   0.0102024
        k(  309) = (   0.1904762  -0.1904762   0.0000001), wk =   0.0102355
        k(  310) = (   0.1984127  -0.1984126  -0.0000001), wk =   0.0102686
        k(  311) = (   0.2063492  -0.2063492  -0.0000000), wk =   0.0103018
        k(  312) = (   0.2142857  -0.2142857   0.0000001), wk =   0.0103349
        k(  313) = (   0.2222222  -0.2222223   0.0000002), wk =   0.0103680
        k(  314) = (   0.2301587  -0.2301587  -0.0000000), wk =   0.0104011
        k(  315) = (   0.2380952  -0.2380952   0.0000001), wk =   0.0104343
        k(  316) = (   0.2460317  -0.2460318   0.0000002), wk =   0.0104674
        k(  317) = (   0.2539683  -0.2539683  -0.0000001), wk =   0.0105005
        k(  318) = (   0.2619048  -0.2619047  -0.0000001), wk =   0.0105336
        k(  319) = (   0.2698413  -0.2698413   0.0000001), wk =   0.0105668
        k(  320) = (   0.2777778  -0.2777778  -0.0000001), wk =   0.0105999
        k(  321) = (   0.2857143  -0.2857142  -0.0000001), wk =   0.0106330
        k(  322) = (   0.2936508  -0.2936508   0.0000000), wk =   0.0106661
        k(  323) = (   0.3015873  -0.3015873  -0.0000001), wk =   0.0106993
        k(  324) = (   0.3095238  -0.3095239  -0.0000000), wk =   0.0107324
        k(  325) = (   0.3174603  -0.3174603   0.0000000), wk =   0.0107655
        k(  326) = (   0.3253968  -0.3253968   0.0000001), wk =   0.0107986
        k(  327) = (   0.3333333  -0.3333334  -0.0000000), wk =   0.0108318
        k(  328) = (   0.3412698  -0.3412699   0.0000001), wk =   0.0108649
        k(  329) = (   0.3492063  -0.3492063   0.0000001), wk =   0.0108980
        k(  330) = (   0.3571429  -0.3571428  -0.0000001), wk =   0.0109311
        k(  331) = (   0.3650794  -0.3650794  -0.0000000), wk =   0.0109643
        k(  332) = (   0.3730159  -0.3730159   0.0000001), wk =   0.0109974
        k(  333) = (   0.3809524  -0.3809523  -0.0000002), wk =   0.0110305
        k(  334) = (   0.3888889  -0.3888889  -0.0000000), wk =   0.0110636
        k(  335) = (   0.3968254  -0.3968254   0.0000001), wk =   0.0110968
        k(  336) = (   0.4047619  -0.4047618   0.0000001), wk =   0.0111299
        k(  337) = (   0.4126984  -0.4126984  -0.0000001), wk =   0.0111630
        k(  338) = (   0.4206349  -0.4206349   0.0000000), wk =   0.0111961
        k(  339) = (   0.4285714  -0.4285715   0.0000001), wk =   0.0112293
        k(  340) = (   0.4365079  -0.4365079  -0.0000001), wk =   0.0112624
        k(  341) = (   0.4444444  -0.4444444   0.0000000), wk =   0.0112955
        k(  342) = (   0.4523810  -0.4523810   0.0000000), wk =   0.0113286
        k(  343) = (   0.4603175  -0.4603175  -0.0000001), wk =   0.0113618
        k(  344) = (   0.4682540  -0.4682539  -0.0000001), wk =   0.0113949
        k(  345) = (   0.4761905  -0.4761905   0.0000000), wk =   0.0114280
        k(  346) = (   0.4841270  -0.4841270   0.0000001), wk =   0.0114611
        k(  347) = (   0.4920635   0.5079366  -1.0000001), wk =   0.0114943

     Dense  grid:    68115 G-vectors     FFT dimensions: (  36,  48,  96)

     Smooth grid:    17241 G-vectors     FFT dimensions: (  24,  30,  60)

     Dynamical RAM for                 wfc:       1.41 MB

     Dynamical RAM for     wfc (w. buffer):       1.41 MB

     Dynamical RAM for           str. fact:       2.08 MB

     Dynamical RAM for           local pot:       0.00 MB

     Dynamical RAM for          nlocal pot:       3.29 MB

     Dynamical RAM for                qrad:       3.59 MB

     Dynamical RAM for          rho,v,vnew:       6.91 MB

     Dynamical RAM for           G-vectors:       4.03 MB

     Dynamical RAM for          h,s,v(r/c):       0.34 MB

     Dynamical RAM for          <psi|beta>:       0.07 MB

     Dynamical RAM for                 psi:       2.83 MB

     Dynamical RAM for                hpsi:       2.83 MB

     Dynamical RAM for                spsi:       2.83 MB

     Dynamical RAM for      wfcinit/wfcrot:       3.89 MB

     Dynamical RAM for           addusdens:     201.63 MB

     Estimated static dynamical RAM per process >      30.76 MB

     Estimated max dynamical RAM per process >     232.39 MB

     Check: negative core charge=   -0.000047

     The potential is recalculated from file :
     ./out/aiida.save/charge-density

     Starting wfcs are   58 randomized atomic wfcs

     Band Structure Calculation
     Davidson diagonalization with overlap

     Computing kpt #:     1  of   347
     total cpu time spent up to now is        4.9 secs

     Computing kpt #:     2  of   347
     total cpu time spent up to now is        7.0 secs

     Computing kpt #:     3  of   347
     total cpu time spent up to now is        9.2 secs

     Computing kpt #:     4  of   347
     total cpu time spent up to now is       11.3 secs

     Computing kpt #:     5  of   347
     total cpu time spent up to now is       13.5 secs

     Computing kpt #:     6  of   347
     total cpu time spent up to now is       15.7 secs

     Computing kpt #:     7  of   347
     total cpu time spent up to now is       17.9 secs

     Computing kpt #:     8  of   347
     total cpu time spent up to now is       20.1 secs

     Computing kpt #:     9  of   347
     total cpu time spent up to now is       22.4 secs

     Computing kpt #:    10  of   347
     total cpu time spent up to now is       24.6 secs

     Computing kpt #:    11  of   347
     total cpu time spent up to now is       26.9 secs

     Computing kpt #:    12  of   347
     total cpu time spent up to now is       29.2 secs

     Computing kpt #:    13  of   347
     total cpu time spent up to now is       31.6 secs

     Computing kpt #:    14  of   347
     total cpu time spent up to now is       34.0 secs

     Computing kpt #:    15  of   347
     total cpu time spent up to now is       36.3 secs

     Computing kpt #:    16  of   347
     total cpu time spent up to now is       38.7 secs

     Computing kpt #:    17  of   347
     total cpu time spent up to now is       41.0 secs

     Computing kpt #:    18  of   347
     total cpu time spent up to now is       43.3 secs

     Computing kpt #:    19  of   347
     total cpu time spent up to now is       45.7 secs

     Computing kpt #:    20  of   347
     total cpu time spent up to now is       48.1 secs

     Computing kpt #:    21  of   347
     total cpu time spent up to now is       50.5 secs

     Computing kpt #:    22  of   347
     total cpu time spent up to now is       53.0 secs

     Computing kpt #:    23  of   347
     total cpu time spent up to now is       55.4 secs

     Computing kpt #:    24  of   347
     c_bands:  1 eigenvalues not converged
     total cpu time spent up to now is       58.1 secs

     Computing kpt #:    25  of   347
     c_bands:  1 eigenvalues not converged
     total cpu time spent up to now is       60.7 secs

     Computing kpt #:    26  of   347
     total cpu time spent up to now is       63.3 secs

     Computing kpt #:    27  of   347
     total cpu time spent up to now is       65.8 secs

     Computing kpt #:    28  of   347
     total cpu time spent up to now is       68.2 secs

     Computing kpt #:    29  of   347
     total cpu time spent up to now is       70.7 secs

     Computing kpt #:    30  of   347
     total cpu time spent up to now is       73.0 secs

     Computing kpt #:    31  of   347
     total cpu time spent up to now is       75.4 secs

     Computing kpt #:    32  of   347
     total cpu time spent up to now is       77.8 secs

     Computing kpt #:    33  of   347
     total cpu time spent up to now is       80.2 secs

     Computing kpt #:    34  of   347
     total cpu time spent up to now is       82.5 secs

     Computing kpt #:    35  of   347
     total cpu time spent up to now is       84.9 secs

     Computing kpt #:    36  of   347
     total cpu time spent up to now is       87.3 secs

     Computing kpt #:    37  of   347
     total cpu time spent up to now is       89.7 secs

     Computing kpt #:    38  of   347
     total cpu time spent up to now is       92.0 secs

     Computing kpt #:    39  of   347
     total cpu time spent up to now is       94.3 secs

     Computing kpt #:    40  of   347
     total cpu time spent up to now is       96.6 secs

     Computing kpt #:    41  of   347
     total cpu time spent up to now is       98.9 secs

     Computing kpt #:    42  of   347
     total cpu time spent up to now is      101.3 secs

     Computing kpt #:    43  of   347
     total cpu time spent up to now is      103.5 secs

     Computing kpt #:    44  of   347
     total cpu time spent up to now is      105.8 secs

     Computing kpt #:    45  of   347
     total cpu time spent up to now is      108.1 secs

     Computing kpt #:    46  of   347
     total cpu time spent up to now is      110.4 secs

     Computing kpt #:    47  of   347
     total cpu time spent up to now is      112.7 secs

     Computing kpt #:    48  of   347
     total cpu time spent up to now is      114.8 secs

     Computing kpt #:    49  of   347
     total cpu time spent up to now is      117.1 secs

     Computing kpt #:    50  of   347
     total cpu time spent up to now is      119.3 secs

     Computing kpt #:    51  of   347
     total cpu time spent up to now is      121.4 secs

     Computing kpt #:    52  of   347
     total cpu time spent up to now is      123.5 secs

     Computing kpt #:    53  of   347
     total cpu time spent up to now is      125.5 secs

     Computing kpt #:    54  of   347
     total cpu time spent up to now is      127.6 secs

     Computing kpt #:    55  of   347
     total cpu time spent up to now is      129.6 secs

     Computing kpt #:    56  of   347
     total cpu time spent up to now is      131.7 secs

     Computing kpt #:    57  of   347
     total cpu time spent up to now is      133.8 secs

     Computing kpt #:    58  of   347
     total cpu time spent up to now is      136.0 secs

     Computing kpt #:    59  of   347
     total cpu time spent up to now is      138.2 secs

     Computing kpt #:    60  of   347
     total cpu time spent up to now is      140.3 secs

     Computing kpt #:    61  of   347
     total cpu time spent up to now is      142.6 secs

     Computing kpt #:    62  of   347
     total cpu time spent up to now is      144.8 secs

     Computing kpt #:    63  of   347
     total cpu time spent up to now is      147.0 secs

     Computing kpt #:    64  of   347
     total cpu time spent up to now is      149.2 secs

     Computing kpt #:    65  of   347
     total cpu time spent up to now is      151.4 secs

     Computing kpt #:    66  of   347
     total cpu time spent up to now is      153.6 secs

     Computing kpt #:    67  of   347
     total cpu time spent up to now is      155.8 secs

     Computing kpt #:    68  of   347
     total cpu time spent up to now is      158.1 secs

     Computing kpt #:    69  of   347
     total cpu time spent up to now is      160.3 secs

     Computing kpt #:    70  of   347
     total cpu time spent up to now is      162.6 secs

     Computing kpt #:    71  of   347
     total cpu time spent up to now is      164.8 secs

     Computing kpt #:    72  of   347
     total cpu time spent up to now is      167.1 secs

     Computing kpt #:    73  of   347
     total cpu time spent up to now is      169.3 secs

     Computing kpt #:    74  of   347
     total cpu time spent up to now is      171.5 secs

     Computing kpt #:    75  of   347
     total cpu time spent up to now is      173.8 secs

     Computing kpt #:    76  of   347
     total cpu time spent up to now is      176.0 secs

     Computing kpt #:    77  of   347
     total cpu time spent up to now is      178.3 secs

     Computing kpt #:    78  of   347
     total cpu time spent up to now is      180.6 secs

     Computing kpt #:    79  of   347
     total cpu time spent up to now is      182.8 secs

     Computing kpt #:    80  of   347
     total cpu time spent up to now is      185.0 secs

     Computing kpt #:    81  of   347
     total cpu time spent up to now is      187.3 secs

     Computing kpt #:    82  of   347
     total cpu time spent up to now is      189.5 secs

     Computing kpt #:    83  of   347
     total cpu time spent up to now is      191.7 secs

     Computing kpt #:    84  of   347
     total cpu time spent up to now is      194.0 secs

     Computing kpt #:    85  of   347
     total cpu time spent up to now is      196.3 secs

     Computing kpt #:    86  of   347
     total cpu time spent up to now is      198.6 secs

     Computing kpt #:    87  of   347
     total cpu time spent up to now is      200.8 secs

     Computing kpt #:    88  of   347
     total cpu time spent up to now is      202.9 secs

     Computing kpt #:    89  of   347
     total cpu time spent up to now is      205.1 secs

     Computing kpt #:    90  of   347
     total cpu time spent up to now is      207.3 secs

     Computing kpt #:    91  of   347
     total cpu time spent up to now is      209.4 secs

     Computing kpt #:    92  of   347
     total cpu time spent up to now is      211.5 secs

     Computing kpt #:    93  of   347
     total cpu time spent up to now is      213.7 secs

     Computing kpt #:    94  of   347
     total cpu time spent up to now is      215.9 secs

     Computing kpt #:    95  of   347
     total cpu time spent up to now is      218.1 secs

     Computing kpt #:    96  of   347
     total cpu time spent up to now is      220.4 secs

     Computing kpt #:    97  of   347
     total cpu time spent up to now is      222.7 secs

     Computing kpt #:    98  of   347
     total cpu time spent up to now is      225.0 secs

     Computing kpt #:    99  of   347
     total cpu time spent up to now is      227.4 secs

     Computing kpt #:   100  of   347
     total cpu time spent up to now is      229.7 secs

     Computing kpt #:   101  of   347
     total cpu time spent up to now is      232.1 secs

     Computing kpt #:   102  of   347
     total cpu time spent up to now is      234.5 secs

     Computing kpt #:   103  of   347
     total cpu time spent up to now is      236.9 secs

     Computing kpt #:   104  of   347
     total cpu time spent up to now is      239.3 secs

     Computing kpt #:   105  of   347
     total cpu time spent up to now is      241.8 secs

     Computing kpt #:   106  of   347
     total cpu time spent up to now is      244.3 secs

     Computing kpt #:   107  of   347
     total cpu time spent up to now is      246.8 secs

     Computing kpt #:   108  of   347
     total cpu time spent up to now is      249.3 secs

     Computing kpt #:   109  of   347
     c_bands:  1 eigenvalues not converged
     total cpu time spent up to now is      252.0 secs

     Computing kpt #:   110  of   347
     total cpu time spent up to now is      254.5 secs

     Computing kpt #:   111  of   347
     total cpu time spent up to now is      257.0 secs

     Computing kpt #:   112  of   347
     total cpu time spent up to now is      259.5 secs

     Computing kpt #:   113  of   347
     total cpu time spent up to now is      262.0 secs

     Computing kpt #:   114  of   347
     total cpu time spent up to now is      264.4 secs

     Computing kpt #:   115  of   347
     total cpu time spent up to now is      266.9 secs

     Computing kpt #:   116  of   347
     total cpu time spent up to now is      269.3 secs

     Computing kpt #:   117  of   347
     total cpu time spent up to now is      271.7 secs

     Computing kpt #:   118  of   347
     total cpu time spent up to now is      274.1 secs

     Computing kpt #:   119  of   347
     total cpu time spent up to now is      276.3 secs

     Computing kpt #:   120  of   347
     total cpu time spent up to now is      278.7 secs

     Computing kpt #:   121  of   347
     total cpu time spent up to now is      281.0 secs

     Computing kpt #:   122  of   347
     total cpu time spent up to now is      283.2 secs

     Computing kpt #:   123  of   347
     total cpu time spent up to now is      285.5 secs

     Computing kpt #:   124  of   347
     total cpu time spent up to now is      287.7 secs

     Computing kpt #:   125  of   347
     total cpu time spent up to now is      289.8 secs

     Computing kpt #:   126  of   347
     total cpu time spent up to now is      292.0 secs

     Computing kpt #:   127  of   347
     total cpu time spent up to now is      294.1 secs

     Computing kpt #:   128  of   347
     total cpu time spent up to now is      296.3 secs

     Computing kpt #:   129  of   347
     total cpu time spent up to now is      298.5 secs

     Computing kpt #:   130  of   347
     total cpu time spent up to now is      300.7 secs

     Computing kpt #:   131  of   347
     total cpu time spent up to now is      303.0 secs

     Computing kpt #:   132  of   347
     total cpu time spent up to now is      305.3 secs

     Computing kpt #:   133  of   347
     total cpu time spent up to now is      307.6 secs

     Computing kpt #:   134  of   347
     total cpu time spent up to now is      309.9 secs

     Computing kpt #:   135  of   347
     total cpu time spent up to now is      312.3 secs

     Computing kpt #:   136  of   347
     total cpu time spent up to now is      314.6 secs

     Computing kpt #:   137  of   347
     total cpu time spent up to now is      316.9 secs

     Computing kpt #:   138  of   347
     total cpu time spent up to now is      319.2 secs

     Computing kpt #:   139  of   347
     total cpu time spent up to now is      321.6 secs

     Computing kpt #:   140  of   347
     total cpu time spent up to now is      323.9 secs

     Computing kpt #:   141  of   347
     total cpu time spent up to now is      326.3 secs

     Computing kpt #:   142  of   347
     total cpu time spent up to now is      328.6 secs

     Computing kpt #:   143  of   347
     total cpu time spent up to now is      330.8 secs

     Computing kpt #:   144  of   347
     total cpu time spent up to now is      333.1 secs

     Computing kpt #:   145  of   347
     total cpu time spent up to now is      335.5 secs

     Computing kpt #:   146  of   347
     total cpu time spent up to now is      337.8 secs

     Computing kpt #:   147  of   347
     total cpu time spent up to now is      340.1 secs

     Computing kpt #:   148  of   347
     total cpu time spent up to now is      342.5 secs

     Computing kpt #:   149  of   347
     total cpu time spent up to now is      344.7 secs

     Computing kpt #:   150  of   347
     total cpu time spent up to now is      347.0 secs

     Computing kpt #:   151  of   347
     total cpu time spent up to now is      349.4 secs

     Computing kpt #:   152  of   347
     total cpu time spent up to now is      351.7 secs

     Computing kpt #:   153  of   347
     total cpu time spent up to now is      354.0 secs

     Computing kpt #:   154  of   347
     total cpu time spent up to now is      356.3 secs

     Computing kpt #:   155  of   347
     total cpu time spent up to now is      358.5 secs

     Computing kpt #:   156  of   347
     total cpu time spent up to now is      360.8 secs

     Computing kpt #:   157  of   347
     total cpu time spent up to now is      363.2 secs

     Computing kpt #:   158  of   347
     total cpu time spent up to now is      365.5 secs

     Computing kpt #:   159  of   347
     total cpu time spent up to now is      367.9 secs

     Computing kpt #:   160  of   347
     total cpu time spent up to now is      370.2 secs

     Computing kpt #:   161  of   347
     total cpu time spent up to now is      372.5 secs

     Computing kpt #:   162  of   347
     total cpu time spent up to now is      374.9 secs

     Computing kpt #:   163  of   347
     total cpu time spent up to now is      377.1 secs

     Computing kpt #:   164  of   347
     total cpu time spent up to now is      379.4 secs

     Computing kpt #:   165  of   347
     total cpu time spent up to now is      381.8 secs

     Computing kpt #:   166  of   347
     total cpu time spent up to now is      384.2 secs

     Computing kpt #:   167  of   347
     total cpu time spent up to now is      386.5 secs

     Computing kpt #:   168  of   347
     total cpu time spent up to now is      388.7 secs

     Computing kpt #:   169  of   347
     total cpu time spent up to now is      391.0 secs

     Computing kpt #:   170  of   347
     total cpu time spent up to now is      393.3 secs

     Computing kpt #:   171  of   347
     total cpu time spent up to now is      395.5 secs

     Computing kpt #:   172  of   347
     total cpu time spent up to now is      397.7 secs

     Computing kpt #:   173  of   347
     total cpu time spent up to now is      400.0 secs

     Computing kpt #:   174  of   347
     total cpu time spent up to now is      402.2 secs

     Computing kpt #:   175  of   347
     total cpu time spent up to now is      404.5 secs

     Computing kpt #:   176  of   347
     total cpu time spent up to now is      406.8 secs

     Computing kpt #:   177  of   347
     total cpu time spent up to now is      409.0 secs

     Computing kpt #:   178  of   347
     total cpu time spent up to now is      411.3 secs

     Computing kpt #:   179  of   347
     total cpu time spent up to now is      413.5 secs

     Computing kpt #:   180  of   347
     total cpu time spent up to now is      415.8 secs

     Computing kpt #:   181  of   347
     total cpu time spent up to now is      418.1 secs

     Computing kpt #:   182  of   347
     total cpu time spent up to now is      420.3 secs

     Computing kpt #:   183  of   347
     total cpu time spent up to now is      422.6 secs

     Computing kpt #:   184  of   347
     total cpu time spent up to now is      424.8 secs

     Computing kpt #:   185  of   347
     total cpu time spent up to now is      427.0 secs

     Computing kpt #:   186  of   347
     total cpu time spent up to now is      429.2 secs

     Computing kpt #:   187  of   347
     total cpu time spent up to now is      431.4 secs

     Computing kpt #:   188  of   347
     total cpu time spent up to now is      433.5 secs

     Computing kpt #:   189  of   347
     total cpu time spent up to now is      435.6 secs

     Computing kpt #:   190  of   347
     total cpu time spent up to now is      437.8 secs

     Computing kpt #:   191  of   347
     total cpu time spent up to now is      440.0 secs

     Computing kpt #:   192  of   347
     total cpu time spent up to now is      442.1 secs

     Computing kpt #:   193  of   347
     total cpu time spent up to now is      444.4 secs

     Computing kpt #:   194  of   347
     total cpu time spent up to now is      446.6 secs

     Computing kpt #:   195  of   347
     total cpu time spent up to now is      448.9 secs

     Computing kpt #:   196  of   347
     total cpu time spent up to now is      451.2 secs

     Computing kpt #:   197  of   347
     total cpu time spent up to now is      453.5 secs

     Computing kpt #:   198  of   347
     total cpu time spent up to now is      455.8 secs

     Computing kpt #:   199  of   347
     total cpu time spent up to now is      458.1 secs

     Computing kpt #:   200  of   347
     total cpu time spent up to now is      460.4 secs

     Computing kpt #:   201  of   347
     total cpu time spent up to now is      462.8 secs

     Computing kpt #:   202  of   347
     total cpu time spent up to now is      465.1 secs

     Computing kpt #:   203  of   347
     total cpu time spent up to now is      467.5 secs

[...]
    -6.6359  -5.4861  -3.1852  -0.9323   2.9586   3.2971   6.8176   6.9066
     8.2586   9.2766  10.0246  10.5391  11.9744  12.1034  12.4598  12.5389
    13.1786  14.3221  14.6954  15.5986  17.2245  17.3517  18.4649  18.9117
    18.9554  19.6349  20.2370  20.2899  21.9989  22.2511  24.3952  24.4863
    25.6658  25.9796  27.6343

          k =-0.2143 0.1564 0.0351 (  2143 PWs)   bands (ev):

   -66.5490 -66.5486 -32.9632 -32.9591 -32.7608 -32.7575 -32.5645 -32.5602
    -6.5695  -5.4754  -3.1048  -0.9888   2.9919   3.2658   6.8075   6.9511
     8.2894   9.1493   9.9074  10.4382  11.9766  12.0970  12.4742  12.5143
    13.1948  14.3095  14.6889  15.5953  17.1397  17.3329  18.4487  18.8876
    18.9072  19.6837  20.2799  20.3868  22.0170  22.3176  24.3730  24.4767
    25.6861  25.9563  27.6777

          k =-0.2222 0.1622 0.0364 (  2144 PWs)   bands (ev):

   -66.5480 -66.5475 -32.9638 -32.9597 -32.7649 -32.7619 -32.5669 -32.5628
    -6.5015  -5.4644  -3.0229  -1.0454   3.0232   3.2372   6.7930   6.9935
     8.3298   9.0234   9.7895  10.3333  11.9728  12.0883  12.4152  12.5722
    13.2153  14.2940  14.6830  15.5898  17.0584  17.3074  18.4348  18.8596
    18.8638  19.7268  20.3238  20.4795  22.0318  22.3845  24.3607  24.4634
    25.7094  25.9326  27.7172

          k =-0.2302 0.1680 0.0377 (  2144 PWs)   bands (ev):

   -66.5469 -66.5465 -32.9645 -32.9604 -32.7693 -32.7664 -32.5692 -32.5651
    -6.4317  -5.4532  -2.9397  -1.1022   3.0530   3.2108   6.7746   7.0339
     8.3801   8.8987   9.6717  10.2257  11.9580  12.0792  12.3682  12.6301
    13.2393  14.2753  14.6777  15.5817  16.9805  17.2768  18.4228  18.8128
    18.8407  19.7647  20.3689  20.5669  22.0437  22.4517  24.3577  24.4475
    25.7355  25.9086  27.7532

          k =-0.2381 0.1738 0.0390 (  2144 PWs)   bands (ev):

   -66.5457 -66.5454 -32.9653 -32.9612 -32.7737 -32.7711 -32.5711 -32.5672
    -6.3603  -5.4418  -2.8550  -1.1595   3.0816   3.1865   6.7526   7.0719
     8.4391   8.7763   9.5550  10.1165  11.9279  12.0706  12.3361  12.6866
    13.2650  14.2528  14.6724  15.5727  16.9066  17.2408  18.4124  18.7668
    18.8188  19.7975  20.4151  20.6494  22.0525  22.5194  24.3628  24.4297
    25.7640  25.8846  27.7860

          k =-0.2460 0.1796 0.0403 (  2146 PWs)   bands (ev):

   -66.5446 -66.5443 -32.9663 -32.9621 -32.7783 -32.7758 -32.5728 -32.5692
    -6.2875  -5.4304  -2.7691  -1.2172   3.1090   3.1641   6.7274   7.1076
     8.5053   8.6563   9.4399  10.0069  11.8829  12.0629  12.3187  12.7403
    13.2919  14.2261  14.6673  15.5625  16.8367  17.1998  18.4028  18.7215
    18.7988  19.8256  20.4622  20.7263  22.0592  22.5875  24.3745  24.4115
    25.7946  25.8608  27.8157

          k =-0.2540 0.1854 0.0416 (  2144 PWs)   bands (ev):

   -66.5435 -66.5432 -32.9673 -32.9631 -32.7828 -32.7806 -32.5744 -32.5709
    -6.2132  -5.4189  -2.6818  -1.2755   3.1359   3.1431   6.6996   7.1406
     8.5393   8.5787   9.3276   9.8978  11.8268  12.0564  12.3123  12.7909
    13.3196  14.1955  14.6630  15.5519  16.7709  17.1545  18.3932  18.6772
    18.7814  19.8495  20.5104  20.7977  22.0639  22.6559  24.3913  24.3939
    25.8267  25.8376  27.8428

          k =-0.2619 0.1912 0.0429 (  2142 PWs)   bands (ev):

   -66.5424 -66.5420 -32.9685 -32.9643 -32.7874 -32.7854 -32.5757 -32.5724
    -6.1376  -5.4075  -2.5933  -1.3345   3.1233   3.1623   6.6694   7.1708
     8.4256   8.6577   9.2186   9.7902  11.7638  12.0511  12.3119  12.8371
    13.3472  14.1608  14.6597  15.5407  16.7092  17.1050  18.3823  18.6340
    18.7675  19.8696  20.5595  20.8635  22.0669  22.7243  24.3784  24.4113
    25.8155  25.8600  27.8675

          k =-0.2698 0.1970 0.0442 (  2145 PWs)   bands (ev):

   -66.5413 -66.5410 -32.9700 -32.9658 -32.7920 -32.7902 -32.5768 -32.5738
    -6.0609  -5.3963  -2.5034  -1.3942   3.1040   3.1888   6.6371   7.1975
     8.3159   8.7406   9.1136   9.6854  11.6968  12.0469  12.3139  12.8788
    13.3738  14.1209  14.6574  15.5292  16.6514  17.0511  18.3693  18.5923
    18.7580  19.8863  20.6093  20.9237  22.0682  22.7924  24.3661  24.4327
    25.7949  25.8941  27.8903

          k =-0.2778 0.2028 0.0454 (  2145 PWs)   bands (ev):

   -66.5402 -66.5399 -32.9716 -32.9674 -32.7965 -32.7949 -32.5777 -32.5750
    -5.9828  -5.3853  -2.4124  -1.4546   3.0848   3.2157   6.6030   7.2202
     8.2106   8.8256   9.0135   9.5854  11.6293  12.0439  12.3159  12.9158
    13.3998  14.0772  14.6563  15.5171  16.5974  16.9946  18.3531  18.5526
    18.7535  19.9001  20.6600  20.9786  22.0683  22.8599  24.3585  24.4536
    25.7764  25.9284  27.9116

          k =-0.2857 0.2086 0.0467 (  2146 PWs)   bands (ev):

   -66.5392 -66.5388 -32.9733 -32.9691 -32.8009 -32.7996 -32.5785 -32.5760
    -5.9037  -5.3746  -2.3200  -1.5161   3.0654   3.2433   6.5671   7.2380
     8.1105   8.9084   8.9193   9.4937  11.5609  12.0423  12.3164  12.9483
    13.4244  14.0299  14.6567  15.5045  16.5472  16.9353  18.3335  18.5150
    18.7544  19.9113  20.7115  21.0286  22.0668  22.9263  24.3568  24.4722
    25.7605  25.9628  27.9315

          k =-0.2937 0.2144 0.0480 (  2149 PWs)   bands (ev):

   -66.5381 -66.5377 -32.9753 -32.9710 -32.8053 -32.8042 -32.5791 -32.5770
    -5.8235  -5.3642  -2.2266  -1.5785   3.0452   3.2718   6.5297   7.2498
     8.0169   8.8314   8.9801   9.4190  11.4936  12.0418  12.3144  12.9756
    13.4468  13.9787  14.6591  15.4903  16.5004  16.8732  18.3100  18.4802
    18.7606  19.9203  20.7636  21.0740  22.0644  22.9909  24.3620  24.4867
    25.7476  25.9969  27.9502

          k =-0.3016 0.2202 0.0493 (  2152 PWs)   bands (ev):

   -66.5371 -66.5367 -32.9775 -32.9732 -32.8095 -32.8085 -32.5797 -32.5777
    -5.7423  -5.3542  -2.1321  -1.6419   3.0236   3.3017   6.4907   7.2539
     7.9306   8.7509   9.0210   9.3809  11.4288  12.0427  12.3096  12.9982
    13.4665  13.9241  14.6638  15.4744  16.4568  16.8087  18.2831  18.4484
    18.7718  19.9274  20.8163  21.1152  22.0609  23.0532  24.3751  24.4960
    25.7382  26.0304  27.9682

          k =-0.3095 0.2259 0.0506 (  2151 PWs)   bands (ev):

   -66.5360 -66.5357 -32.9798 -32.9755 -32.8135 -32.8126 -32.5800 -32.5782
    -5.6603  -5.3446  -2.0363  -1.7064   3.0002   3.3332   6.4503   7.2495
     7.8536   8.6786   9.0085   9.4014  11.3664  12.0449  12.3017  13.0163
    13.4835  13.8671  14.6709  15.4566  16.4163  16.7424  18.2535  18.4200
    18.7874  19.9328  20.8695  21.1530  22.0564  23.1129  24.3971  24.4990
    25.7323  26.0631  27.9854

          k =-0.3175 0.2317 0.0519 (  2150 PWs)   bands (ev):

   -66.5350 -66.5347 -32.9823 -32.9779 -32.8172 -32.8165 -32.5802 -32.5787
    -5.5775  -5.3354  -1.9394  -1.7720   2.9743   3.3665   6.4084   7.2348
     7.7869   8.6151   8.9531   9.4693  11.3066  12.0486  12.2909  13.0301
    13.4971  13.8078  14.6800  15.4361  16.3786  16.6744  18.2217  18.3951
    18.8070  19.9367  20.9228  21.1878  22.0507  23.1694  24.4284  24.4954
    25.7297  26.0948  28.0021

          k =-0.3254 0.2375 0.0532 (  2150 PWs)   bands (ev):

   -66.5340 -66.5337 -32.9849 -32.9805 -32.8208 -32.8202 -32.5804 -32.5791
    -5.4940  -5.3266  -1.8415  -1.8389   2.9456   3.4020   6.3649   7.2087
     7.7313   8.5612   8.8793   9.5598  11.2497  12.0537  12.2775  13.0397
    13.5073  13.7468  14.6914  15.4123  16.3431  16.6052  18.1884  18.3740
    18.8299  19.9395  20.9761  21.2201  22.0441  23.2223  24.4691  24.4851
    25.7302  26.1254  28.0162

          k =-0.3333 0.2433 0.0545 (  2149 PWs)   bands (ev):

   -66.5330 -66.5327 -32.9877 -32.9834 -32.8242 -32.8236 -32.5804 -32.5794
    -5.4095  -5.3184  -1.9069  -1.7425   2.9135   3.4398   6.3201   7.1715
     7.6863   8.5174   8.7995   9.6600  11.1967  12.0604  12.2619  13.0457
    13.5140  13.6844  14.7044  15.3846  16.3093  16.5352  18.1544  18.3566
    18.8558  19.9415  21.0291  21.2503  22.0364  23.2713  24.4686  24.5192
    25.7332  26.1547  27.9968

          k =-0.3413 0.2491 0.0558 (  2149 PWs)   bands (ev):

   -66.5321 -66.5317 -32.9906 -32.9862 -32.8272 -32.8268 -32.5803 -32.5796
    -5.3247  -5.3106  -1.9762  -1.6425   2.8777   3.4798   6.2734   7.1254
     7.6506   8.4838   8.7187   9.7637  11.1464  12.0688  12.2446  13.0483
    13.5168  13.6209  14.7194  15.3531  16.2775  16.4641  18.1202  18.3428
    18.8841  19.9426  21.0814  21.2789  22.0277  23.3167  24.4467  24.5784
    25.7380  26.1827  27.9768

          k =-0.3492 0.2549 0.0571 (  2147 PWs)   bands (ev):

   -66.5311 -66.5308 -32.9936 -32.9892 -32.8300 -32.8297 -32.5803 -32.5798
    -5.3034  -5.2392  -2.0467  -1.5416   2.8378   3.5225   6.2250   7.0725
     7.6219   8.4602   8.6389   9.8682  11.1008  12.0790  12.2264  13.0478
    13.5160  13.5574  14.7360  15.3171  16.2466  16.3931  18.0863  18.3324
    18.9146  19.9433  21.1328  21.3063  22.0180  23.3586  24.4205  24.6459
    25.7441  26.2094  27.9554

          k =-0.3571 0.2607 0.0584 (  2152 PWs)   bands (ev):

   -66.5303 -66.5300 -32.9968 -32.9924 -32.8327 -32.8325 -32.5802 -32.5799
    -5.2967  -5.1533  -2.1183  -1.4401   2.7935   3.5676   6.1749   7.0155
     7.5981   8.4458   8.5614   9.9708  11.0585  12.0908  12.2080  13.0442
    13.4932  13.5116  14.7540  15.2759  16.2165  16.3222  18.0533  18.3251
    18.9468  19.9436  21.1830  21.3327  22.0071  23.3972  24.3910  24.7208
    25.7510  26.2347  27.9324

          k =-0.3651 0.2665 0.0597 (  2150 PWs)   bands (ev):

   -66.5294 -66.5291 -32.9999 -32.9954 -32.8351 -32.8349 -32.5801 -32.5799
    -5.2904  -5.0669  -2.1912  -1.3378   2.7448   3.6155   6.1232   6.9568
     7.5778   8.4403   8.4868  10.0702  11.0218  12.1048  12.1903  13.0384
    13.4299  13.5043  14.7731  15.2307  16.1873  16.2521  18.0217  18.3205
    18.9805  19.9438  21.2316  21.3583  21.9954  23.4329  24.3596  24.8022
    25.7581  26.2586  27.9076

          k =-0.3730 0.2723 0.0610 (  2146 PWs)   bands (ev):

   -66.5285 -66.5283 -33.0031 -32.9984 -32.8373 -32.8370 -32.5799 -32.5797
    -5.2847  -4.9801  -2.2651  -1.2350   2.6916   3.6660   6.0697   6.8980
     7.5602   8.4155   8.4428  10.1640  10.9911  12.1208  12.1743  13.0304
    13.3673  13.4938  14.7933  15.1811  16.1588  16.1827  17.9917  18.3182
    19.0154  19.9440  21.2784  21.3832  21.9829  23.4660  24.3273  24.8890
    25.7652  26.2812  27.8806

          k =-0.3810 0.2781 0.0623 (  2143 PWs)   bands (ev):

   -66.5277 -66.5275 -33.0062 -33.0016 -32.8393 -32.8390 -32.5798 -32.5795
    -5.2795  -4.8930  -2.3403  -1.1319   2.6340   3.7190   6.0143   6.8403
     7.5448   8.3478   8.4522  10.2501  10.9675  12.1389  12.1610  13.0207
    13.3056  13.4800  14.8136  15.1274  16.1143  16.1309  17.9638  18.3177
    19.0511  19.9444  21.3231  21.4075  21.9696  23.4968  24.2952  24.9802
    25.7722  26.3025  27.8513

          k =-0.3889 0.2839 0.0636 (  2148 PWs)   bands (ev):

   -66.5271 -66.5268 -33.0093 -33.0047 -32.8411 -32.8408 -32.5798 -32.5793
    -5.2747  -4.8056  -2.4166  -1.0287   2.5721   3.7743   5.9570   6.7842
     7.5314   8.2838   8.4669  10.3251  10.9517  12.1514  12.1589  13.0092
    13.2450  13.4630  14.8333  15.0696  16.0470  16.1036  17.9378  18.3184
    19.0873  19.9450  21.3654  21.4311  21.9555  23.5254  24.2641  25.0746
    25.7788  26.3224  27.8196

          k =-0.3968 0.2897 0.0649 (  2149 PWs)   bands (ev):

   -66.5264 -66.5262 -33.0123 -33.0078 -32.8427 -32.8423 -32.5797 -32.5790
    -5.2705  -4.7181  -2.4939  -0.9258   2.5064   3.8321   5.8980   6.7304
     7.5199   8.2238   8.4865  10.3871  10.9461  12.1469  12.1810  12.9966
    13.1862  13.4437  14.8535  15.0088  15.9816  16.0775  17.9141  18.3199
    19.1235  19.9461  21.4052  21.4540  21.9408  23.5522  24.2350  25.1712
    25.7852  26.3410  27.7855

          k =-0.4048 0.2955 0.0662 (  2153 PWs)   bands (ev):

   -66.5258 -66.5255 -33.0154 -33.0108 -32.8442 -32.8437 -32.5797 -32.5788
    -5.2666  -4.6303  -2.5722  -0.8235   2.4373   3.8918   5.8374   6.6799
     7.5104   8.1678   8.5095  10.4334  10.9507  12.1483  12.2052  12.9827
    13.1291  13.4215  14.8742  14.9453  15.9181  16.0527  17.8925  18.3217
    19.1595  19.9476  21.4424  21.4760  21.9254  23.5771  24.2083  25.2690
    25.7913  26.3584  27.7494

          k =-0.4127 0.3013 0.0675 (  2149 PWs)   bands (ev):

   -66.5251 -66.5249 -33.0181 -33.0136 -32.8455 -32.8449 -32.5795 -32.5784
    -5.2632  -4.5424  -2.6515  -0.7221   2.3655   3.9536   5.7755   6.6330
     7.5027   8.1161   8.5358  10.4645  10.9650  12.1567  12.2318  12.9685
    13.0741  13.3971  14.8809  14.8948  15.8571  16.0293  17.8731  18.3235
    19.1947  19.9497  21.4769  21.4970  21.9097  23.6003  24.1844  25.3669
    25.7973  26.3746  27.7114

          k =-0.4206 0.3071 0.0688 (  2150 PWs)   bands (ev):

   -66.5246 -66.5243 -33.0209 -33.0162 -32.8466 -32.8460 -32.5795 -32.5781
    -5.2602  -4.4543  -2.7318  -0.6225   2.2915   4.0170   5.7125   6.5893
     7.4965   8.0686   8.5631  10.4826  10.9858  12.1727  12.2602  12.9534
    13.0211  13.3703  14.8154  14.9155  15.7987  16.0077  17.8558  18.3249
    19.2288  19.9522  21.5088  21.5168  21.8937  23.6217  24.1636  25.4636
    25.8030  26.3895  27.6721

          k =-0.4286 0.3129 0.0701 (  2152 PWs)   bands (ev):

   -66.5241 -66.5239 -33.0234 -33.0187 -32.8477 -32.8469 -32.5794 -32.5779
    -5.2575  -4.3663  -2.8128  -0.5251   2.2166   4.0813   5.6482   6.5495
     7.4918   8.0254   8.5916  10.4900  11.0097  12.1960  12.2900  12.9376
    12.9708  13.3413  14.7501  14.9368  15.7429  15.9877  17.8406  18.3258
    19.2613  19.9551  21.5354  21.5379  21.8775  23.6413  24.1460  25.5581
    25.8086  26.4032  27.6316

          k =-0.4365 0.3186 0.0714 (  2151 PWs)   bands (ev):

   -66.5236 -66.5234 -33.0256 -33.0211 -32.8486 -32.8477 -32.5792 -32.5777
    -5.2552  -4.2783  -2.8946  -0.4309   2.1416   4.1463   5.5837   6.5135
     7.4884   7.9866   8.6207  10.4912  11.0332  12.2265  12.3217  12.9195
    12.9252  13.3105  14.6870  14.9566  15.6904  15.9697  17.8272  18.3262
    19.2918  19.9584  21.5525  21.5647  21.8614  23.6591  24.1314  25.6492
    25.8141  26.4157  27.5910

          k =-0.4444 0.3244 0.0727 (  2151 PWs)   bands (ev):

   -66.5232 -66.5230 -33.0277 -33.0231 -32.8493 -32.8483 -32.5791 -32.5775
    -5.2533  -4.1903  -2.9772  -0.3412   2.0680   4.2112   5.5195   6.4819
     7.4859   7.9523   8.6476  10.4885  11.0541  12.2627  12.3548  12.8771
    12.9066  13.2785  14.6269  14.9764  15.6415  15.9539  17.8157  18.3259
    19.3198  19.9618  21.5680  21.5890  21.8455  23.6750  24.1196  25.7356
    25.8193  26.4268  27.5506

          k =-0.4524 0.3302 0.0740 (  2149 PWs)   bands (ev):

   -66.5229 -66.5226 -33.0295 -33.0249 -32.8499 -32.8489 -32.5790 -32.5773
    -5.2516  -4.1025  -3.0604  -0.2569   1.9972   4.2751   5.4564   6.4542
     7.4844   7.9225   8.6732  10.4838  11.0714  12.3035  12.3891  12.8345
    12.8910  13.2458  14.5714  14.9958  15.5965  15.9400  17.8059  18.3251
    19.3449  19.9653  21.5818  21.6111  21.8299  23.6890  24.1105  25.8158
    25.8242  26.4367  27.5118

          k =-0.4603 0.3360 0.0753 (  2150 PWs)   bands (ev):

   -66.5226 -66.5223 -33.0311 -33.0265 -32.8504 -32.8494 -32.5790 -32.5772
    -5.2502  -4.0149  -3.1441  -0.1800   1.9313   4.3367   5.3955   6.4305
     7.4834   7.8972   8.6961  10.4785  11.0849  12.3456  12.4243  12.7941
    12.8764  13.2130  14.5215  15.0145  15.5560  15.9280  17.7977  18.3239
    19.3669  19.9687  21.5936  21.6311  21.8148  23.7009  24.1035  25.8288
    25.8882  26.4451  27.4752

          k =-0.4683 0.3418 0.0766 (  2151 PWs)   bands (ev):

   -66.5223 -66.5221 -33.0324 -33.0278 -32.8508 -32.8497 -32.5789 -32.5770
    -5.2491  -3.9276  -3.2282  -0.1124   1.8723   4.3944   5.3386   6.4111
     7.4829   7.8765   8.7159  10.4727  11.0949  12.3877  12.4598  12.7559
    12.8632  13.1816  14.4788  15.0309  15.5205  15.9182  17.7912  18.3226
    19.3853  19.9718  21.6035  21.6491  21.8004  23.7108  24.0984  25.8327
    25.9511  26.4522  27.4423

          k =-0.4762 0.3476 0.0779 (  2152 PWs)   bands (ev):

   -66.5221 -66.5219 -33.0334 -33.0289 -32.8512 -32.8500 -32.5789 -32.5769
    -5.2483  -3.8409  -3.3125  -0.0561   1.8228   4.4454   5.2881   6.3958
     7.4827   7.8604   8.7324  10.4678  11.1019  12.4255  12.4956  12.7195
    12.8520  13.1531  14.4442  15.0454  15.4910  15.9105  17.7861  18.3213
    19.4000  19.9743  21.6113  21.6649  21.7869  23.7185  24.0948  25.8360
    26.0027  26.4577  27.4146

          k =-0.4841 0.3534 0.0792 (  2153 PWs)   bands (ev):

   -66.5220 -66.5218 -33.0341 -33.0296 -32.8514 -32.8502 -32.5788 -32.5768
    -5.2477  -3.7554  -3.3963  -0.0138   1.7850   4.4865   5.2474   6.3849
     7.4827   7.8488   8.7443  10.4643  11.1064  12.4562  12.5301  12.6847
    12.8434  13.1300  14.4187  15.0572  15.4688  15.9050  17.7825  18.3202
    19.4106  19.9763  21.6169  21.6782  21.7753  23.7240  24.0925  25.8384
    26.0412  26.4618  27.3933

          k =-0.4921-0.3465-0.0945 (  2153 PWs)   bands (ev):

   -66.5219 -66.5217 -33.0345 -33.0301 -32.8516 -32.8504 -32.5788 -32.5768
    -5.2473  -3.6735  -3.4771   0.0127   1.7613   4.5133   5.2205   6.3788
     7.4827   7.8419   8.7522  10.4620  11.1089  12.4765  12.5617  12.6532
    12.8379  13.1146  14.4032  15.0648  15.4548  15.9021  17.7804  18.3194
    19.4170  19.9775  21.6202  21.6876  21.7667  23.7274  24.0913  25.8399
    26.0650  26.4642  27.3800

     Writing output data file ./out/aiida.save/

     init_run     :      1.97s CPU      2.09s WALL (       1 calls)
     electrons    :    800.43s CPU    805.18s WALL (       1 calls)

     Called by init_run:
     wfcinit      :      0.00s CPU      0.00s WALL (       1 calls)
     wfcinit:atom :      0.21s CPU      0.28s WALL (     347 calls)
     wfcinit:wfcr :     18.41s CPU     18.55s WALL (     347 calls)
     potinit      :      0.27s CPU      0.30s WALL (       1 calls)
     hinit0       :      1.37s CPU      1.38s WALL (       1 calls)

     Called by electrons:
     c_bands      :    800.42s CPU    805.16s WALL (       1 calls)
     v_of_rho     :      0.07s CPU      0.07s WALL (       1 calls)
     v_h          :      0.00s CPU      0.00s WALL (       1 calls)
     v_xc         :      0.06s CPU      0.07s WALL (       1 calls)
     newd         :      0.24s CPU      0.30s WALL (       1 calls)
     PAW_pot      :      0.20s CPU      0.21s WALL (       1 calls)

     Called by c_bands:
     init_us_2    :      0.26s CPU      0.35s WALL (     347 calls)
     cegterg      :    778.11s CPU    781.89s WALL (    1283 calls)

     Called by sum_band:

     Called by *egterg:
     cdiaghg      :     46.32s CPU     46.48s WALL (   23318 calls)
     cegterg:over :     51.53s CPU     51.72s WALL (   22971 calls)
     cegterg:upda :     30.05s CPU     30.17s WALL (   22971 calls)
     cegterg:last :     78.95s CPU     79.20s WALL (   16990 calls)
     h_psi        :    540.01s CPU    543.11s WALL (   24601 calls)
     s_psi        :     32.45s CPU     32.58s WALL (   24601 calls)
     g_psi        :      6.27s CPU      6.29s WALL (   22971 calls)

     Called by h_psi:
     h_psi:calbec :     34.08s CPU     34.27s WALL (   24601 calls)
     vloc_psi     :    469.80s CPU    472.56s WALL (   24601 calls)
     add_vuspsi   :     33.35s CPU     33.49s WALL (   24601 calls)

     General routines
     calbec       :     34.03s CPU     34.24s WALL (   24601 calls)
     fft          :      0.02s CPU      0.02s WALL (      13 calls)
     ffts         :      0.00s CPU      0.00s WALL (       1 calls)
     fftw         :    415.33s CPU    417.81s WALL ( 1549716 calls)
     interpolate  :      0.00s CPU      0.00s WALL (       1 calls)
     davcio       :      0.20s CPU      0.85s WALL (     694 calls)


     PAW routines
     PAW_pot      :      0.20s CPU      0.21s WALL (       1 calls)

     PWSCF        :  13m23.40s CPU  13m28.97s WALL


   This run was terminated on:  10:43:28  24Dec2020            

=------------------------------------------------------------------------------=
   JOB DONE.
=------------------------------------------------------------------------------=
