
     Program PWSCF v.6.5 starts on 23Jun2020 at 17:14:20 

     This program is part of the open-source Quantum ESPRESSO suite
     for quantum simulation of materials; please cite
         "P. Giannozzi et al., J. Phys.:Condens. Matter 21 395502 (2009);
         "P. Giannozzi et al., J. Phys.:Condens. Matter 29 465901 (2017);
          URL http://www.quantum-espresso.org", 
     in publications or presentations arising from this work. More details at
     http://www.quantum-espresso.org/quote

     Serial multi-threaded version, running on    4 processor cores
     Fft bands division:     nmany     =       1
     Reading input from scf.in

     Current dimensions of program PWSCF are:
     Max number of different atomic species (ntypx) = 10
     Max number of k-points (npk) =  40000
     Max angular momentum in pseudopotentials (lmaxx) =  3
     file Fe.pbe-spn-kjpaw_psl.0.2.1.UPF: wavefunction(s)  3D renormalized
     Found symmetry operation: I + ( -0.0000  0.0000 -0.5000)
     This is a supercell, fractional translations are disabled
     Message from routine setup:
     using ibrav=0 with symmetry is DISCOURAGED, use correct ibrav instead

     G-vector sticks info
     --------------------
     sticks:   dense  smooth     PW     G-vecs:    dense   smooth      PW
     Sum        1209     485    151                68115    17241    3045



     bravais-lattice index     =            0
     lattice parameter (alat)  =       4.6247  a.u.
     unit-cell volume          =     360.6537 (a.u.)^3
     number of atoms/cell      =           10
     number of atomic types    =            2
     number of electrons       =        72.00
     number of Kohn-Sham states=           43
     kinetic-energy cutoff     =      50.0000  Ry
     charge density cutoff     =     500.0000  Ry
     convergence threshold     =      1.0E-09
     mixing beta               =       0.4000
     number of iterations used =            8  plain     mixing
     Exchange-correlation= PBE
                           (   1   4   3   4   0   0   0)

     celldm(1)=   4.624727  celldm(2)=   0.000000  celldm(3)=   0.000000
     celldm(4)=   0.000000  celldm(5)=   0.000000  celldm(6)=   0.000000

     crystal axes: (cart. coord. in units of alat)
               a(1) = (  -1.000000   0.000000   0.000000 )  
               a(2) = (  -0.034383  -1.416982   0.000000 )  
               a(3) = (   0.989489   0.778733   2.573167 )  

     reciprocal axes: (cart. coord. in units 2 pi/alat)
               b(1) = ( -1.000000  0.024265  0.377198 )  
               b(2) = (  0.000000 -0.705725  0.213578 )  
               b(3) = (  0.000000  0.000000  0.388626 )  


     PseudoPot. # 1 for Fe read from file:
     ../pseudo/Fe.pbe-spn-kjpaw_psl.0.2.1.UPF
     MD5 check sum: e86618425769142926afa95317d90200
     Pseudo is Projector augmented-wave + core cor, Zval = 16.0
     Generated using "atomic" code by A. Dal Corso v.5.0.99 svn rev. 10869
     Shape of augmentation charge: PSQ
     Using radial grid of 1191 points,  6 beta functions with: 
                l(1) =   0
                l(2) =   0
                l(3) =   1
                l(4) =   1
                l(5) =   2
                l(6) =   2
     Q(r) pseudized with 0 coefficients 


     PseudoPot. # 2 for N  read from file:
     ../pseudo/N.pbe-n-radius_5.UPF
     MD5 check sum: 16739722b17309cd8fe442a2ace49922
     Pseudo is Ultrasoft + core correction, Zval =  5.0
     Generated using "atomic" code by A. Dal Corso v.5.1
     Using radial grid of 1085 points,  4 beta functions with: 
                l(1) =   0
                l(2) =   0
                l(3) =   1
                l(4) =   1
     Q(r) pseudized with 0 coefficients 


     atomic species   valence    mass     pseudopotential
        Fe            16.00    55.84500     Fe( 1.00)
        N              5.00    14.00670     N ( 1.00)

      2 Sym. Ops., with inversion, found


                                    s                        frac. trans.

      isym =  1     identity                                     

 cryst.   s( 1) = (     1          0          0      )
                  (     0          1          0      )
                  (     0          0          1      )

 cart.    s( 1) = (  1.0000000  0.0000000  0.0000000 )
                  (  0.0000000  1.0000000  0.0000000 )
                  (  0.0000000  0.0000000  1.0000000 )


      isym =  2     inversion                                    

 cryst.   s( 2) = (    -1          0          0      )
                  (     0         -1          0      )
                  (     0          0         -1      )

 cart.    s( 2) = ( -1.0000000 -0.0000000 -0.0000000 )
                  (  0.0000000 -1.0000000 -0.0000000 )
                  (  0.0000000  0.0000000 -1.0000000 )


   Cartesian axes

     site n.     atom                  positions (alat units)
         1           Fe  tau(   1) = (   0.5000000   0.0000000   0.0000000  )
         2           N   tau(   2) = (   0.6144374   1.1155488   0.6239930  )
         3           N   tau(   3) = (   0.9146898   0.6907994   0.6625905  )
         4           N   tau(   4) = (   0.5237334   1.3143789   1.1077483  )
         5           N   tau(   5) = (   1.0053938   0.4919693   0.1788351  )
         6           Fe  tau(   6) = (  -0.0052557   0.3893666   1.2865834  )
         7           N   tau(   7) = (   0.0747988   0.0879337   1.9105764  )
         8           N   tau(   8) = (   0.3750512  -0.3368157   1.9491739  )
         9           N   tau(   9) = (  -0.0159052   0.2867638   2.3943318  )
        10           N   tau(  10) = (   0.4657552  -0.5356458   1.4654185  )

   Crystallographic axes

     site n.     atom                  positions (cryst. coord.)
         1           Fe  tau(   1) = ( -0.5000000  0.0000000  0.0000000  )
         2           N   tau(   2) = ( -0.3520000 -0.6540000  0.2425000  )
         3           N   tau(   3) = ( -0.6480000 -0.3460000  0.2575000  )
         4           N   tau(   4) = ( -0.0740000 -0.6910000  0.4305000  )
         5           N   tau(   5) = ( -0.9260000 -0.3090000  0.0695000  )
         6           Fe  tau(   6) = (  0.5000000  0.0000000  0.5000000  )
         7           N   tau(   7) = (  0.6480000  0.3460000  0.7425000  )
         8           N   tau(   8) = (  0.3520000  0.6540000  0.7575000  )
         9           N   tau(   9) = (  0.9260000  0.3090000  0.9305000  )
        10           N   tau(  10) = (  0.0740000  0.6910000  0.5695000  )

     number of k points=   106  Marzari-Vanderbilt smearing, width (Ry)=  0.0220
                       cart. coord. in units 2pi/alat
        k(    1) = (   0.0000000   0.0000000   0.0000000), wk =   0.0095238
        k(    2) = (   0.0000000   0.0000000   0.1295421), wk =   0.0190476
        k(    3) = (   0.0000000  -0.1008179   0.0305111), wk =   0.0190476
        k(    4) = (   0.0000000  -0.1008179   0.1600532), wk =   0.0190476
        k(    5) = (   0.0000000  -0.1008179  -0.0990309), wk =   0.0190476
        k(    6) = (   0.0000000  -0.2016358   0.0610223), wk =   0.0190476
        k(    7) = (   0.0000000  -0.2016358   0.1905643), wk =   0.0190476
        k(    8) = (   0.0000000  -0.2016358  -0.0685198), wk =   0.0190476
        k(    9) = (   0.0000000  -0.3024538   0.0915334), wk =   0.0190476
        k(   10) = (   0.0000000  -0.3024538   0.2210755), wk =   0.0190476
        k(   11) = (   0.0000000  -0.3024538  -0.0380086), wk =   0.0190476
        k(   12) = (  -0.1000000   0.0024265   0.0377198), wk =   0.0190476
        k(   13) = (  -0.1000000   0.0024265   0.1672618), wk =   0.0190476
        k(   14) = (  -0.1000000   0.0024265  -0.0918223), wk =   0.0190476
        k(   15) = (  -0.1000000  -0.0983914   0.0682309), wk =   0.0190476
        k(   16) = (  -0.1000000  -0.0983914   0.1977730), wk =   0.0190476
        k(   17) = (  -0.1000000  -0.0983914  -0.0613111), wk =   0.0190476
        k(   18) = (  -0.1000000  -0.1992094   0.0987421), wk =   0.0190476
        k(   19) = (  -0.1000000  -0.1992094   0.2282841), wk =   0.0190476
        k(   20) = (  -0.1000000  -0.1992094  -0.0308000), wk =   0.0190476
        k(   21) = (  -0.1000000  -0.3000273   0.1292532), wk =   0.0190476
        k(   22) = (  -0.1000000  -0.3000273   0.2587952), wk =   0.0190476
        k(   23) = (  -0.1000000  -0.3000273  -0.0002889), wk =   0.0190476
        k(   24) = (  -0.1000000   0.3048802  -0.0538136), wk =   0.0190476
        k(   25) = (  -0.1000000   0.3048802   0.0757284), wk =   0.0190476
        k(   26) = (  -0.1000000   0.3048802  -0.1833557), wk =   0.0190476
        k(   27) = (  -0.1000000   0.2040623  -0.0233025), wk =   0.0190476
        k(   28) = (  -0.1000000   0.2040623   0.1062396), wk =   0.0190476
        k(   29) = (  -0.1000000   0.2040623  -0.1528446), wk =   0.0190476
        k(   30) = (  -0.1000000   0.1032444   0.0072086), wk =   0.0190476
        k(   31) = (  -0.1000000   0.1032444   0.1367507), wk =   0.0190476
        k(   32) = (  -0.1000000   0.1032444  -0.1223334), wk =   0.0190476
        k(   33) = (  -0.2000000   0.0048530   0.0754395), wk =   0.0190476
        k(   34) = (  -0.2000000   0.0048530   0.2049816), wk =   0.0190476
        k(   35) = (  -0.2000000   0.0048530  -0.0541025), wk =   0.0190476
        k(   36) = (  -0.2000000  -0.0959650   0.1059507), wk =   0.0190476
        k(   37) = (  -0.2000000  -0.0959650   0.2354927), wk =   0.0190476
        k(   38) = (  -0.2000000  -0.0959650  -0.0235914), wk =   0.0190476
        k(   39) = (  -0.2000000  -0.1967829   0.1364618), wk =   0.0190476
        k(   40) = (  -0.2000000  -0.1967829   0.2660039), wk =   0.0190476
        k(   41) = (  -0.2000000  -0.1967829   0.0069198), wk =   0.0190476
        k(   42) = (  -0.2000000  -0.2976008   0.1669730), wk =   0.0190476
        k(   43) = (  -0.2000000  -0.2976008   0.2965150), wk =   0.0190476
        k(   44) = (  -0.2000000  -0.2976008   0.0374309), wk =   0.0190476
        k(   45) = (  -0.2000000   0.3073067  -0.0160939), wk =   0.0190476
        k(   46) = (  -0.2000000   0.3073067   0.1134482), wk =   0.0190476
        k(   47) = (  -0.2000000   0.3073067  -0.1456359), wk =   0.0190476
        k(   48) = (  -0.2000000   0.2064888   0.0144173), wk =   0.0190476
        k(   49) = (  -0.2000000   0.2064888   0.1439593), wk =   0.0190476
        k(   50) = (  -0.2000000   0.2064888  -0.1151248), wk =   0.0190476
        k(   51) = (  -0.2000000   0.1056709   0.0449284), wk =   0.0190476
        k(   52) = (  -0.2000000   0.1056709   0.1744705), wk =   0.0190476
        k(   53) = (  -0.2000000   0.1056709  -0.0846136), wk =   0.0190476
        k(   54) = (  -0.3000000   0.0072795   0.1131593), wk =   0.0190476
        k(   55) = (  -0.3000000   0.0072795   0.2427014), wk =   0.0190476
        k(   56) = (  -0.3000000   0.0072795  -0.0163827), wk =   0.0190476
        k(   57) = (  -0.3000000  -0.0935385   0.1436705), wk =   0.0190476
        k(   58) = (  -0.3000000  -0.0935385   0.2732125), wk =   0.0190476
        k(   59) = (  -0.3000000  -0.0935385   0.0141284), wk =   0.0190476
        k(   60) = (  -0.3000000  -0.1943564   0.1741816), wk =   0.0190476
        k(   61) = (  -0.3000000  -0.1943564   0.3037237), wk =   0.0190476
        k(   62) = (  -0.3000000  -0.1943564   0.0446395), wk =   0.0190476
        k(   63) = (  -0.3000000  -0.2951743   0.2046927), wk =   0.0190476
        k(   64) = (  -0.3000000  -0.2951743   0.3342348), wk =   0.0190476
        k(   65) = (  -0.3000000  -0.2951743   0.0751507), wk =   0.0190476
        k(   66) = (  -0.3000000   0.3097332   0.0216259), wk =   0.0190476
        k(   67) = (  -0.3000000   0.3097332   0.1511680), wk =   0.0190476
        k(   68) = (  -0.3000000   0.3097332  -0.1079161), wk =   0.0190476
        k(   69) = (  -0.3000000   0.2089153   0.0521370), wk =   0.0190476
        k(   70) = (  -0.3000000   0.2089153   0.1816791), wk =   0.0190476
        k(   71) = (  -0.3000000   0.2089153  -0.0774050), wk =   0.0190476
        k(   72) = (  -0.3000000   0.1080974   0.0826482), wk =   0.0190476
        k(   73) = (  -0.3000000   0.1080974   0.2121902), wk =   0.0190476
        k(   74) = (  -0.3000000   0.1080974  -0.0468939), wk =   0.0190476
        k(   75) = (  -0.4000000   0.0097059   0.1508791), wk =   0.0190476
        k(   76) = (  -0.4000000   0.0097059   0.2804212), wk =   0.0190476
        k(   77) = (  -0.4000000   0.0097059   0.0213370), wk =   0.0190476
        k(   78) = (  -0.4000000  -0.0911120   0.1813902), wk =   0.0190476
        k(   79) = (  -0.4000000  -0.0911120   0.3109323), wk =   0.0190476
        k(   80) = (  -0.4000000  -0.0911120   0.0518482), wk =   0.0190476
        k(   81) = (  -0.4000000  -0.1919299   0.2119014), wk =   0.0190476
        k(   82) = (  -0.4000000  -0.1919299   0.3414434), wk =   0.0190476
        k(   83) = (  -0.4000000  -0.1919299   0.0823593), wk =   0.0190476
        k(   84) = (  -0.4000000  -0.2927478   0.2424125), wk =   0.0190476
        k(   85) = (  -0.4000000  -0.2927478   0.3719546), wk =   0.0190476
        k(   86) = (  -0.4000000  -0.2927478   0.1128705), wk =   0.0190476
        k(   87) = (  -0.4000000   0.3121597   0.0593457), wk =   0.0190476
        k(   88) = (  -0.4000000   0.3121597   0.1888877), wk =   0.0190476
        k(   89) = (  -0.4000000   0.3121597  -0.0701964), wk =   0.0190476
        k(   90) = (  -0.4000000   0.2113418   0.0898568), wk =   0.0190476
        k(   91) = (  -0.4000000   0.2113418   0.2193989), wk =   0.0190476
        k(   92) = (  -0.4000000   0.2113418  -0.0396852), wk =   0.0190476
        k(   93) = (  -0.4000000   0.1105239   0.1203680), wk =   0.0190476
        k(   94) = (  -0.4000000   0.1105239   0.2499100), wk =   0.0190476
        k(   95) = (  -0.4000000   0.1105239  -0.0091741), wk =   0.0190476
        k(   96) = (   0.5000000  -0.0121324  -0.1885989), wk =   0.0095238
        k(   97) = (   0.5000000  -0.0121324  -0.0590568), wk =   0.0190476
        k(   98) = (   0.5000000  -0.1129503  -0.1580877), wk =   0.0190476
        k(   99) = (   0.5000000  -0.1129503  -0.0285457), wk =   0.0190476
        k(  100) = (   0.5000000  -0.1129503  -0.2876298), wk =   0.0190476
        k(  101) = (   0.5000000  -0.2137683  -0.1275766), wk =   0.0190476
        k(  102) = (   0.5000000  -0.2137683   0.0019655), wk =   0.0190476
        k(  103) = (   0.5000000  -0.2137683  -0.2571187), wk =   0.0190476
        k(  104) = (   0.5000000  -0.3145862  -0.0970655), wk =   0.0190476
        k(  105) = (   0.5000000  -0.3145862   0.0324766), wk =   0.0190476
        k(  106) = (   0.5000000  -0.3145862  -0.2266075), wk =   0.0190476

                       cryst. coord.
        k(    1) = (   0.0000000   0.0000000   0.0000000), wk =   0.0095238
        k(    2) = (   0.0000000   0.0000000   0.3333333), wk =   0.0190476
        k(    3) = (   0.0000000   0.1428571  -0.0000000), wk =   0.0190476
        k(    4) = (   0.0000000   0.1428571   0.3333333), wk =   0.0190476
        k(    5) = (  -0.0000000   0.1428571  -0.3333333), wk =   0.0190476
        k(    6) = (   0.0000000   0.2857143  -0.0000000), wk =   0.0190476
        k(    7) = (   0.0000000   0.2857143   0.3333333), wk =   0.0190476
        k(    8) = (  -0.0000000   0.2857143  -0.3333333), wk =   0.0190476
        k(    9) = (   0.0000000   0.4285714  -0.0000000), wk =   0.0190476
        k(   10) = (   0.0000000   0.4285714   0.3333333), wk =   0.0190476
        k(   11) = (  -0.0000000   0.4285714  -0.3333333), wk =   0.0190476
        k(   12) = (   0.1000000   0.0000000  -0.0000000), wk =   0.0190476
        k(   13) = (   0.1000000   0.0000000   0.3333333), wk =   0.0190476
        k(   14) = (   0.1000000   0.0000000  -0.3333333), wk =   0.0190476
        k(   15) = (   0.1000000   0.1428571   0.0000000), wk =   0.0190476
        k(   16) = (   0.1000000   0.1428571   0.3333333), wk =   0.0190476
        k(   17) = (   0.1000000   0.1428571  -0.3333333), wk =   0.0190476
        k(   18) = (   0.1000000   0.2857143   0.0000000), wk =   0.0190476
        k(   19) = (   0.1000000   0.2857143   0.3333333), wk =   0.0190476
        k(   20) = (   0.1000000   0.2857143  -0.3333333), wk =   0.0190476
        k(   21) = (   0.1000000   0.4285714  -0.0000000), wk =   0.0190476
        k(   22) = (   0.1000000   0.4285714   0.3333333), wk =   0.0190476
        k(   23) = (   0.1000000   0.4285714  -0.3333333), wk =   0.0190476
        k(   24) = (   0.1000000  -0.4285714   0.0000000), wk =   0.0190476
        k(   25) = (   0.1000000  -0.4285714   0.3333333), wk =   0.0190476
        k(   26) = (   0.1000000  -0.4285714  -0.3333333), wk =   0.0190476
        k(   27) = (   0.1000000  -0.2857143   0.0000000), wk =   0.0190476
        k(   28) = (   0.1000000  -0.2857143   0.3333333), wk =   0.0190476
        k(   29) = (   0.1000000  -0.2857143  -0.3333333), wk =   0.0190476
        k(   30) = (   0.1000000  -0.1428571  -0.0000000), wk =   0.0190476
        k(   31) = (   0.1000000  -0.1428571   0.3333333), wk =   0.0190476
        k(   32) = (   0.1000000  -0.1428571  -0.3333333), wk =   0.0190476
        k(   33) = (   0.2000000   0.0000000  -0.0000000), wk =   0.0190476
        k(   34) = (   0.2000000   0.0000000   0.3333333), wk =   0.0190476
        k(   35) = (   0.2000000   0.0000000  -0.3333333), wk =   0.0190476
        k(   36) = (   0.2000000   0.1428571   0.0000000), wk =   0.0190476
        k(   37) = (   0.2000000   0.1428571   0.3333333), wk =   0.0190476
        k(   38) = (   0.2000000   0.1428571  -0.3333333), wk =   0.0190476
        k(   39) = (   0.2000000   0.2857143   0.0000000), wk =   0.0190476
        k(   40) = (   0.2000000   0.2857143   0.3333333), wk =   0.0190476
        k(   41) = (   0.2000000   0.2857143  -0.3333333), wk =   0.0190476
        k(   42) = (   0.2000000   0.4285714  -0.0000000), wk =   0.0190476
        k(   43) = (   0.2000000   0.4285714   0.3333333), wk =   0.0190476
        k(   44) = (   0.2000000   0.4285714  -0.3333333), wk =   0.0190476
        k(   45) = (   0.2000000  -0.4285714   0.0000000), wk =   0.0190476
        k(   46) = (   0.2000000  -0.4285714   0.3333333), wk =   0.0190476
        k(   47) = (   0.2000000  -0.4285714  -0.3333333), wk =   0.0190476
        k(   48) = (   0.2000000  -0.2857143   0.0000000), wk =   0.0190476
        k(   49) = (   0.2000000  -0.2857143   0.3333333), wk =   0.0190476
        k(   50) = (   0.2000000  -0.2857143  -0.3333333), wk =   0.0190476
        k(   51) = (   0.2000000  -0.1428571  -0.0000000), wk =   0.0190476
        k(   52) = (   0.2000000  -0.1428571   0.3333333), wk =   0.0190476
        k(   53) = (   0.2000000  -0.1428571  -0.3333333), wk =   0.0190476
        k(   54) = (   0.3000000   0.0000000   0.0000000), wk =   0.0190476
        k(   55) = (   0.3000000   0.0000000   0.3333333), wk =   0.0190476
        k(   56) = (   0.3000000   0.0000000  -0.3333333), wk =   0.0190476
        k(   57) = (   0.3000000   0.1428571  -0.0000000), wk =   0.0190476
        k(   58) = (   0.3000000   0.1428571   0.3333333), wk =   0.0190476
        k(   59) = (   0.3000000   0.1428571  -0.3333333), wk =   0.0190476
        k(   60) = (   0.3000000   0.2857143  -0.0000000), wk =   0.0190476
        k(   61) = (   0.3000000   0.2857143   0.3333333), wk =   0.0190476
        k(   62) = (   0.3000000   0.2857143  -0.3333333), wk =   0.0190476
        k(   63) = (   0.3000000   0.4285714   0.0000000), wk =   0.0190476
        k(   64) = (   0.3000000   0.4285714   0.3333333), wk =   0.0190476
        k(   65) = (   0.3000000   0.4285714  -0.3333333), wk =   0.0190476
        k(   66) = (   0.3000000  -0.4285714   0.0000000), wk =   0.0190476
        k(   67) = (   0.3000000  -0.4285714   0.3333333), wk =   0.0190476
        k(   68) = (   0.3000000  -0.4285714  -0.3333333), wk =   0.0190476
        k(   69) = (   0.3000000  -0.2857143   0.0000000), wk =   0.0190476
        k(   70) = (   0.3000000  -0.2857143   0.3333333), wk =   0.0190476
        k(   71) = (   0.3000000  -0.2857143  -0.3333333), wk =   0.0190476
        k(   72) = (   0.3000000  -0.1428571   0.0000000), wk =   0.0190476
        k(   73) = (   0.3000000  -0.1428571   0.3333333), wk =   0.0190476
        k(   74) = (   0.3000000  -0.1428571  -0.3333333), wk =   0.0190476
        k(   75) = (   0.4000000   0.0000000  -0.0000000), wk =   0.0190476
        k(   76) = (   0.4000000   0.0000000   0.3333333), wk =   0.0190476
        k(   77) = (   0.4000000   0.0000000  -0.3333333), wk =   0.0190476
        k(   78) = (   0.4000000   0.1428571  -0.0000000), wk =   0.0190476
        k(   79) = (   0.4000000   0.1428571   0.3333333), wk =   0.0190476
        k(   80) = (   0.4000000   0.1428571  -0.3333333), wk =   0.0190476
        k(   81) = (   0.4000000   0.2857143   0.0000000), wk =   0.0190476
        k(   82) = (   0.4000000   0.2857143   0.3333333), wk =   0.0190476
        k(   83) = (   0.4000000   0.2857143  -0.3333333), wk =   0.0190476
        k(   84) = (   0.4000000   0.4285714  -0.0000000), wk =   0.0190476
        k(   85) = (   0.4000000   0.4285714   0.3333333), wk =   0.0190476
        k(   86) = (   0.4000000   0.4285714  -0.3333333), wk =   0.0190476
        k(   87) = (   0.4000000  -0.4285714   0.0000000), wk =   0.0190476
        k(   88) = (   0.4000000  -0.4285714   0.3333333), wk =   0.0190476
        k(   89) = (   0.4000000  -0.4285714  -0.3333333), wk =   0.0190476
        k(   90) = (   0.4000000  -0.2857143   0.0000000), wk =   0.0190476
        k(   91) = (   0.4000000  -0.2857143   0.3333333), wk =   0.0190476
        k(   92) = (   0.4000000  -0.2857143  -0.3333333), wk =   0.0190476
        k(   93) = (   0.4000000  -0.1428571   0.0000000), wk =   0.0190476
        k(   94) = (   0.4000000  -0.1428571   0.3333333), wk =   0.0190476
        k(   95) = (   0.4000000  -0.1428571  -0.3333333), wk =   0.0190476
        k(   96) = (  -0.5000000  -0.0000000   0.0000000), wk =   0.0095238
        k(   97) = (  -0.5000000  -0.0000000   0.3333333), wk =   0.0190476
        k(   98) = (  -0.5000000   0.1428571   0.0000000), wk =   0.0190476
        k(   99) = (  -0.5000000   0.1428571   0.3333333), wk =   0.0190476
        k(  100) = (  -0.5000000   0.1428571  -0.3333333), wk =   0.0190476
        k(  101) = (  -0.5000000   0.2857143   0.0000000), wk =   0.0190476
        k(  102) = (  -0.5000000   0.2857143   0.3333333), wk =   0.0190476
        k(  103) = (  -0.5000000   0.2857143  -0.3333333), wk =   0.0190476
        k(  104) = (  -0.5000000   0.4285714   0.0000000), wk =   0.0190476
        k(  105) = (  -0.5000000   0.4285714   0.3333333), wk =   0.0190476
        k(  106) = (  -0.5000000   0.4285714  -0.3333333), wk =   0.0190476

     Dense  grid:    68115 G-vectors     FFT dimensions: (  36,  48,  96)

     Smooth grid:    17241 G-vectors     FFT dimensions: (  24,  30,  60)

     Dynamical RAM for                 wfc:       1.41 MB

     Dynamical RAM for     wfc (w. buffer):     151.15 MB

     Dynamical RAM for           str. fact:       2.08 MB

     Dynamical RAM for           local pot:       0.00 MB

     Dynamical RAM for          nlocal pot:       3.29 MB

     Dynamical RAM for                qrad:       3.59 MB

     Dynamical RAM for          rho,v,vnew:       6.91 MB

     Dynamical RAM for               rhoin:       2.30 MB

     Dynamical RAM for            rho*nmix:      16.63 MB

     Dynamical RAM for           G-vectors:       4.03 MB

     Dynamical RAM for          h,s,v(r/c):       1.35 MB

     Dynamical RAM for          <psi|beta>:       0.07 MB

     Dynamical RAM for                 psi:       5.65 MB

     Dynamical RAM for                hpsi:       5.65 MB

     Dynamical RAM for                spsi:       5.65 MB

     Dynamical RAM for      wfcinit/wfcrot:       3.89 MB

     Dynamical RAM for           addusdens:     201.63 MB

     Dynamical RAM for          addusforce:     222.98 MB

     Dynamical RAM for         addusstress:     208.91 MB

     Estimated static dynamical RAM per process >     199.43 MB

     Estimated max dynamical RAM per process >     422.41 MB

     Check: negative core charge=   -0.000047

     Initial potential from superposition of free atoms

     starting charge   71.99906, renormalised to   72.00000
     Starting wfcs are   58 randomized atomic wfcs

     total cpu time spent up to now is        5.5 secs

     Self-consistent Calculation

     iteration #  1     ecut=    50.00 Ry     beta= 0.40
     Davidson diagonalization with overlap
     ethr =  1.00E-02,  avg # of iterations =  2.2

     total cpu time spent up to now is       12.8 secs

     total energy              =    -818.87997047 Ry
     estimated scf accuracy    <       0.79267761 Ry

     iteration #  2     ecut=    50.00 Ry     beta= 0.40
     Davidson diagonalization with overlap
     ethr =  1.10E-03,  avg # of iterations =  2.6

     total cpu time spent up to now is       20.2 secs

     total energy              =    -818.88392129 Ry
     estimated scf accuracy    <       0.44795782 Ry

     iteration #  3     ecut=    50.00 Ry     beta= 0.40
     Davidson diagonalization with overlap
     ethr =  6.22E-04,  avg # of iterations =  2.1

     total cpu time spent up to now is       26.8 secs

     total energy              =    -818.92337689 Ry
     estimated scf accuracy    <       0.74351001 Ry

     iteration #  4     ecut=    50.00 Ry     beta= 0.40
     Davidson diagonalization with overlap
     ethr =  6.22E-04,  avg # of iterations =  2.0

     total cpu time spent up to now is       33.5 secs

     total energy              =    -818.98119420 Ry
     estimated scf accuracy    <       0.06784772 Ry

     iteration #  5     ecut=    50.00 Ry     beta= 0.40
     Davidson diagonalization with overlap
     ethr =  9.42E-05,  avg # of iterations =  4.3

     total cpu time spent up to now is       40.9 secs

     total energy              =    -818.98189884 Ry
     estimated scf accuracy    <       0.55382450 Ry

     iteration #  6     ecut=    50.00 Ry     beta= 0.40
     Davidson diagonalization with overlap
     ethr =  9.42E-05,  avg # of iterations =  1.8

     total cpu time spent up to now is       47.6 secs

     total energy              =    -818.99725350 Ry
     estimated scf accuracy    <       0.00542808 Ry

     iteration #  7     ecut=    50.00 Ry     beta= 0.40
     Davidson diagonalization with overlap
     ethr =  7.54E-06,  avg # of iterations =  5.3

     total cpu time spent up to now is       57.8 secs

     total energy              =    -818.99829681 Ry
     estimated scf accuracy    <       0.01485588 Ry

     iteration #  8     ecut=    50.00 Ry     beta= 0.40
     Davidson diagonalization with overlap
     ethr =  7.54E-06,  avg # of iterations =  1.0

     total cpu time spent up to now is       63.7 secs

     total energy              =    -818.99884511 Ry
     estimated scf accuracy    <       0.00021694 Ry

     iteration #  9     ecut=    50.00 Ry     beta= 0.40
     Davidson diagonalization with overlap
     ethr =  3.01E-07,  avg # of iterations =  4.0

     total cpu time spent up to now is       72.3 secs

     total energy              =    -818.99886166 Ry
     estimated scf accuracy    <       0.00029117 Ry

     iteration # 10     ecut=    50.00 Ry     beta= 0.40
     Davidson diagonalization with overlap
     ethr =  3.01E-07,  avg # of iterations =  1.0

     total cpu time spent up to now is       78.1 secs

     total energy              =    -818.99887310 Ry
     estimated scf accuracy    <       0.00000134 Ry

     iteration # 11     ecut=    50.00 Ry     beta= 0.40
     Davidson diagonalization with overlap
     ethr =  1.87E-09,  avg # of iterations =  4.0

     total cpu time spent up to now is       90.1 secs

     total energy              =    -818.99887541 Ry
     estimated scf accuracy    <       0.00000314 Ry

     iteration # 12     ecut=    50.00 Ry     beta= 0.40
     Davidson diagonalization with overlap
     ethr =  1.87E-09,  avg # of iterations =  1.0

     total cpu time spent up to now is       95.7 secs

     total energy              =    -818.99887576 Ry
     estimated scf accuracy    <       0.00000127 Ry

     iteration # 13     ecut=    50.00 Ry     beta= 0.40
     Davidson diagonalization with overlap
     ethr =  1.76E-09,  avg # of iterations =  1.0

     total cpu time spent up to now is      101.4 secs

     total energy              =    -818.99887591 Ry
     estimated scf accuracy    <       0.00000010 Ry

     iteration # 14     ecut=    50.00 Ry     beta= 0.40
     Davidson diagonalization with overlap
     ethr =  1.35E-10,  avg # of iterations =  1.9

     total cpu time spent up to now is      108.2 secs

     total energy              =    -818.99887596 Ry
     estimated scf accuracy    <       0.00000007 Ry

     iteration # 15     ecut=    50.00 Ry     beta= 0.40
     Davidson diagonalization with overlap
     ethr =  9.78E-11,  avg # of iterations =  1.0

     total cpu time spent up to now is      114.1 secs

     End of self-consistent calculation

          k = 0.0000 0.0000 0.0000 (  2145 PWs)   bands (ev):

   -66.5665 -66.5656 -32.9634 -32.9592 -32.7200 -32.7116 -32.4895 -32.4848
    -7.5517  -5.5685  -4.4280   0.2864   1.8066   4.8842   5.2390   6.5664
     9.0235  10.7392  11.1955  11.2380  11.8809  12.0554  12.8867  14.0232
    14.8069  14.8467  15.0251  15.3378  16.8660  17.2605  18.0634  18.4137
    18.4481  19.3883  20.1171  20.5332  20.6121  21.3745  24.0738  25.6434
    26.1261  26.1520  26.5879

     occupation numbers 
     1.0000   1.0000   1.0000   1.0000   1.0000   1.0000   1.0000   1.0000
     1.0000   1.0000   1.0000   1.0000   1.0000   1.0000   1.0000   1.0000
     1.0000   1.0000   1.0000   1.0000   1.0000   1.0000   1.0000   1.0000
     1.0000   1.0000   1.0000   1.0000   1.0000   1.0000   1.0000   1.0000
     1.0000   1.0000   1.0000   1.0003   1.0010   0.7979   0.0000   0.0000
     0.0000   0.0000   0.0000

          k = 0.0000 0.0000 0.1295 (  2154 PWs)   bands (ev):

   -66.5664 -66.5659 -32.9623 -32.9604 -32.7178 -32.7136 -32.4888 -32.4863
    -7.2651  -6.4508  -3.1627  -1.2340   3.0769   4.2021   6.0333   6.5992
     9.0677   9.9759  10.4954  10.5869  12.0400  12.0424  13.8791  14.2814
    14.7667  14.9221  15.3583  15.4605  16.9666  17.2761  17.9405  18.5140
    18.8601  19.3534  19.4836  19.8325  21.3365  21.4885  24.0186  24.6778
    25.7171  26.2561  27.4039

     occupation numbers 
     1.0000   1.0000   1.0000   1.0000   1.0000   1.0000   1.0000   1.0000
     1.0000   1.0000   1.0000   1.0000   1.0000   1.0000   1.0000   1.0000
     1.0000   1.0000   1.0000   1.0000   1.0000   1.0000   1.0000   1.0000
     1.0000   1.0000   1.0000   1.0000   1.0000   1.0000   1.0000   1.0000
     1.0000   1.0000   1.0000   1.0000   0.8785   0.5190   0.0000   0.0000
     0.0000   0.0000   0.0000

          k = 0.0000-0.1008 0.0305 (  2145 PWs)   bands (ev):

   -66.5665 -66.5655 -32.9640 -32.9610 -32.7212 -32.7125 -32.4894 -32.4850
    -7.4420  -5.5385  -4.3807  -0.0002   1.8670   4.2104   5.7023   6.6591
     8.4318  10.3325  10.9848  11.2525  12.5516  12.6036  13.3339  13.7649
    14.2390  14.8103  15.2722  16.1110  16.9976  17.2071  18.3351  18.4749
    18.8347  19.2605  19.8278  20.4122  20.9541  21.2610  23.9570  25.3506
    25.4401  26.1371  26.9892

     occupation numbers 
     1.0000   1.0000   1.0000   1.0000   1.0000   1.0000   1.0000   1.0000
     1.0000   1.0000   1.0000   1.0000   1.0000   1.0000   1.0000   1.0000
     1.0000   1.0000   1.0000   1.0000   1.0000   1.0000   1.0000   1.0000
     1.0000   1.0000   1.0000   1.0000   1.0000   1.0000   1.0000   1.0000
     1.0000   1.0000   1.0000   1.0000   1.0461   1.0008   0.0000   0.0000
     0.0000   0.0000   0.0000

          k = 0.0000-0.1008 0.1601 (  2157 PWs)   bands (ev):

   -66.5663 -66.5659 -32.9625 -32.9625 -32.7193 -32.7146 -32.4885 -32.4862
    -7.0944  -6.4879  -3.0688  -1.3931   2.5578   4.6535   5.4171   7.3404
     8.1233   9.4045  10.5482  11.0641  12.2845  12.6657  13.5525  14.5051
    14.5347  14.9847  15.5222  16.0641  17.0642  17.4419  17.9266  18.6188
    19.0996  19.3917  19.4920  19.5044  21.2724  21.7840  24.1329  24.2823
    25.2065  26.0523  27.8132

     occupation numbers 
     1.0000   1.0000   1.0000   1.0000   1.0000   1.0000   1.0000   1.0000
     1.0000   1.0000   1.0000   1.0000   1.0000   1.0000   1.0000   1.0000
     1.0000   1.0000   1.0000   1.0000   1.0000   1.0000   1.0000   1.0000
     1.0000   1.0000   1.0000   1.0000   1.0000   1.0000   1.0000   1.0000
     1.0000   1.0000   1.0000   1.0000   0.9859   0.0541   0.0000   0.0000
     0.0000   0.0000   0.0000

          k = 0.0000-0.1008-0.0990 (  2147 PWs)   bands (ev):

   -66.5661 -66.5659 -32.9640 -32.9608 -32.7190 -32.7148 -32.4887 -32.4861
    -7.2362  -6.2681  -3.2574  -1.2337   3.1457   3.2880   6.3278   6.6119
     8.6513   9.8911  10.6845  11.1090  12.4210  12.9141  13.4542  13.5661
    14.2828  14.7959  15.5997  15.7309  17.1490  17.4760  18.4787  18.6325
    18.8185  19.2092  19.6319  19.7885  21.0480  21.5986  24.2836  25.3981
    25.6855  25.7892  27.1261

     occupation numbers 
     1.0000   1.0000   1.0000   1.0000   1.0000   1.0000   1.0000   1.0000
     1.0000   1.0000   1.0000   1.0000   1.0000   1.0000   1.0000   1.0000
     1.0000   1.0000   1.0000   1.0000   1.0000   1.0000   1.0000   1.0000
     1.0000   1.0000   1.0000   1.0000   1.0000   1.0000   1.0000   1.0000
     1.0000   1.0000   1.0000   1.0000   1.0741   0.2737   0.0000   0.0000
     0.0000   0.0000   0.0000

          k = 0.0000-0.2016 0.0610 (  2141 PWs)   bands (ev):

   -66.5663 -66.5652 -32.9656 -32.9647 -32.7239 -32.7149 -32.4892 -32.4846
    -7.1732  -5.4476  -4.3081  -0.6225   2.0121   3.7500   5.4592   6.3819
     8.3287  10.0618  10.1831  11.6369  13.0262  13.3056  13.3916  14.2436
    14.3258  14.8558  15.6859  16.5781  17.2386  17.6726  18.2777  18.5905
    19.0450  19.2612  20.1598  20.4706  20.9957  21.3863  23.9387  24.7265
    24.8600  25.1225  27.5809

     occupation numbers 
     1.0000   1.0000   1.0000   1.0000   1.0000   1.0000   1.0000   1.0000
     1.0000   1.0000   1.0000   1.0000   1.0000   1.0000   1.0000   1.0000
     1.0000   1.0000   1.0000   1.0000   1.0000   1.0000   1.0000   1.0000
     1.0000   1.0000   1.0000   1.0000   1.0000   1.0000   1.0000   1.0000
     1.0000   1.0000   1.0000   1.0001   1.0590   0.7709   0.0000   0.0000
     0.0000   0.0000   0.0000

          k = 0.0000-0.2016 0.1906 (  2155 PWs)   bands (ev):

   -66.5661 -66.5657 -32.9659 -32.9644 -32.7220 -32.7171 -32.4884 -32.4860
    -6.8251  -6.3552  -3.0613  -1.6373   2.0737   4.0855   5.2666   7.5188
     7.8912   8.9662  10.5039  11.4742  13.0243  13.1374  13.7787  14.1240
    14.4043  14.8627  16.1440  16.3553  17.3563  17.5476  18.3677  18.6970
    19.1355  19.2966  19.7292  19.8641  21.0620  22.2594  24.2500  24.3889
    24.6052  25.1880  28.1605

     occupation numbers 
     1.0000   1.0000   1.0000   1.0000   1.0000   1.0000   1.0000   1.0000
     1.0000   1.0000   1.0000   1.0000   1.0000   1.0000   1.0000   1.0000
     1.0000   1.0000   1.0000   1.0000   1.0000   1.0000   1.0000   1.0000
     1.0000   1.0000   1.0000   1.0000   1.0000   1.0000   1.0000   1.0000
     1.0000   1.0000   1.0000   1.0000   1.0773   0.0000   0.0000   0.0000
     0.0000   0.0000   0.0000

          k = 0.0000-0.2016-0.0685 (  2156 PWs)   bands (ev):

   -66.5661 -66.5657 -32.9664 -32.9639 -32.7218 -32.7174 -32.4886 -32.4860
    -7.0223  -6.0595  -3.2985  -1.4270   2.6091   2.7395   6.6546   6.6776
     7.6063   9.6990  11.1842  11.4963  12.8802  12.9473  13.5857  13.6287
    14.2175  14.7727  15.7935  16.4785  17.4104  18.0246  18.3724  18.4587
    19.1087  19.3451  19.8266  20.0170  20.9803  21.7233  24.5296  24.7063
    25.1214  25.5385  27.4468

     occupation numbers 
     1.0000   1.0000   1.0000   1.0000   1.0000   1.0000   1.0000   1.0000
     1.0000   1.0000   1.0000   1.0000   1.0000   1.0000   1.0000   1.0000
     1.0000   1.0000   1.0000   1.0000   1.0000   1.0000   1.0000   1.0000
     1.0000   1.0000   1.0000   1.0000   1.0000   1.0000   1.0000   1.0000
     1.0000   1.0000   1.0000   1.0000   1.0542   0.0995   0.0000   0.0000
     0.0000   0.0000   0.0000

          k = 0.0000-0.3025 0.0915 (  2147 PWs)   bands (ev):

   -66.5662 -66.5652 -32.9680 -32.9671 -32.7263 -32.7169 -32.4891 -32.4847
    -6.9296  -5.3457  -4.2934  -1.1177   2.1400   3.8977   4.6303   5.9478
     8.7747   9.6030  10.0946  12.0899  12.8711  13.0049  13.5944  14.5726
    14.6631  15.6736  16.1733  16.3540  17.5364  17.9874  18.2737  18.6279
    18.8802  18.9195  20.6582  20.9287  21.4400  21.7396  23.6915  24.0476
    24.3324  24.5158  27.8721

     occupation numbers 
     1.0000   1.0000   1.0000   1.0000   1.0000   1.0000   1.0000   1.0000
     1.0000   1.0000   1.0000   1.0000   1.0000   1.0000   1.0000   1.0000
     1.0000   1.0000   1.0000   1.0000   1.0000   1.0000   1.0000   1.0000
     1.0000   1.0000   1.0000   1.0000   1.0000   1.0000   1.0000   1.0000
     1.0000   1.0000   1.0020   1.0386   0.6403   0.0851   0.0000   0.0000
     0.0000   0.0000   0.0000

          k = 0.0000-0.3025 0.2211 (  2159 PWs)   bands (ev):

   -66.5661 -66.5655 -32.9681 -32.9668 -32.7240 -32.7196 -32.4882 -32.4860
    -6.6611  -6.1337  -3.1583  -1.8028   1.9667   3.1647   5.5612   7.2372
     7.7017   9.0904  10.6380  11.9639  12.8215  12.8502  13.7872  14.3788
    14.5715  15.5473  16.3102  16.6118  17.4792  17.8384  18.1397  18.7062
    18.8531  19.3187  20.0950  20.3384  21.7972  22.3572  23.6575  23.9271
    24.7084  24.7457  28.1657

     occupation numbers 
     1.0000   1.0000   1.0000   1.0000   1.0000   1.0000   1.0000   1.0000
     1.0000   1.0000   1.0000   1.0000   1.0000   1.0000   1.0000   1.0000
     1.0000   1.0000   1.0000   1.0000   1.0000   1.0000   1.0000   1.0000
     1.0000   1.0000   1.0000   1.0000   1.0000   1.0000   1.0000   1.0000
     1.0000   1.0000   1.0000   1.0000   0.0469   0.0000   0.0000   0.0000
     0.0000   0.0000   0.0000

          k = 0.0000-0.3025-0.0380 (  2163 PWs)   bands (ev):

   -66.5661 -66.5655 -32.9677 -32.9673 -32.7241 -32.7196 -32.4883 -32.4860
    -6.7585  -5.9926  -3.2657  -1.7019   2.2508   2.5598   6.1715   7.1089
     7.2756   9.3818  11.0942  11.7442  12.4922  12.8810  13.9358  13.9670
    15.1075  15.1830  16.0581  16.7576  17.7268  17.9506  18.0845  18.4323
    19.0689  19.1253  20.2485  20.3668  21.5542  22.3394  23.4939  24.1804
    24.7120  25.1016  27.8558

     occupation numbers 
     1.0000   1.0000   1.0000   1.0000   1.0000   1.0000   1.0000   1.0000
     1.0000   1.0000   1.0000   1.0000   1.0000   1.0000   1.0000   1.0000
     1.0000   1.0000   1.0000   1.0000   1.0000   1.0000   1.0000   1.0000
     1.0000   1.0000   1.0000   1.0000   1.0000   1.0000   1.0000   1.0000
     1.0000   1.0000   1.0000   1.0000   0.3643   0.0000   0.0000   0.0000
     0.0000   0.0000   0.0000

          k =-0.1000 0.0024 0.0377 (  2155 PWs)   bands (ev):

   -66.5623 -66.5616 -32.9617 -32.9576 -32.7251 -32.7179 -32.5145 -32.5092
    -7.3678  -5.6553  -4.0313  -0.1090   2.2923   4.5290   5.6457   6.6261
     9.1171  10.8220  10.8951  11.0009  11.2619  12.0246  12.5964  13.4745
    14.1526  14.7077  14.7909  15.4797  17.0324  17.4844  18.1958  18.3968
    19.1823  19.3572  19.8344  20.0010  21.3576  21.7201  24.2458  25.4475
    25.5220  26.2241  26.9684

     occupation numbers 
     1.0000   1.0000   1.0000   1.0000   1.0000   1.0000   1.0000   1.0000
     1.0000   1.0000   1.0000   1.0000   1.0000   1.0000   1.0000   1.0000
     1.0000   1.0000   1.0000   1.0000   1.0000   1.0000   1.0000   1.0000
     1.0000   1.0000   1.0000   1.0000   1.0000   1.0000   1.0000   1.0000
     1.0000   1.0000   1.0000   1.0000   0.8349   0.1025   0.0000   0.0000
     0.0000   0.0000   0.0000

          k =-0.1000 0.0024 0.1673 (  2157 PWs)   bands (ev):

   -66.5621 -66.5619 -32.9604 -32.9588 -32.7228 -32.7199 -32.5122 -32.5116
    -6.8880  -6.6543  -2.3219  -1.9754   3.6757   3.7822   6.4319   6.5330
     9.2941   9.5240  10.4484  10.4563  11.3585  11.9589  13.2358  13.5022
    14.4730  15.0421  15.0599  15.9529  17.1776  17.6315  17.7118  18.2524
    19.2097  19.3829  19.7104  20.2526  20.8172  22.2910  24.2144  24.2269
    25.6765  25.8442  27.8026

     occupation numbers 
     1.0000   1.0000   1.0000   1.0000   1.0000   1.0000   1.0000   1.0000
     1.0000   1.0000   1.0000   1.0000   1.0000   1.0000   1.0000   1.0000
     1.0000   1.0000   1.0000   1.0000   1.0000   1.0000   1.0000   1.0000
     1.0000   1.0000   1.0000   1.0000   1.0000   1.0000   1.0000   1.0000
     1.0000   1.0000   1.0000   1.0000   1.0143   0.0000   0.0000   0.0000
     0.0000   0.0000   0.0000

          k =-0.1000 0.0024-0.0918 (  2144 PWs)   bands (ev):

   -66.5621 -66.5616 -32.9608 -32.9583 -32.7233 -32.7192 -32.5145 -32.5089
    -7.2821  -5.9274  -3.7249  -0.3626   2.4019   4.6926   5.6053   6.7763
     8.8445  10.6555  10.6911  10.8523  11.5534  11.6248  12.8914  13.5036
    14.1876  14.6059  15.3513  15.7097  17.2063  17.3450  18.4168  18.7073
    18.7167  19.3257  19.4535  19.8176  21.2314  22.1536  23.8195  25.2532
    25.4844  26.1453  27.0362

     occupation numbers 
     1.0000   1.0000   1.0000   1.0000   1.0000   1.0000   1.0000   1.0000
     1.0000   1.0000   1.0000   1.0000   1.0000   1.0000   1.0000   1.0000
     1.0000   1.0000   1.0000   1.0000   1.0000   1.0000   1.0000   1.0000
     1.0000   1.0000   1.0000   1.0000   1.0000   1.0000   1.0000   1.0000
     1.0000   1.0000   1.0000   1.0000   1.0332   0.0002   0.0000   0.0000
     0.0000   0.0000   0.0000

          k =-0.1000-0.0984 0.0682 (  2154 PWs)   bands (ev):

   -66.5621 -66.5617 -32.9622 -32.9589 -32.7266 -32.7189 -32.5143 -32.5090
    -7.2482  -5.6976  -3.9136  -0.3233   2.1567   4.7582   5.1886   6.8374
     8.5568   9.8428  10.7536  11.0818  11.9846  12.2636  13.1920  13.8918
    13.9273  15.0408  15.1591  15.9632  16.8772  17.3048  17.6257  18.4758
    19.1219  19.6756  19.9611  20.2254  21.6055  21.7650  24.0568  24.9543
    25.0517  25.8549  27.6006

     occupation numbers 
     1.0000   1.0000   1.0000   1.0000   1.0000   1.0000   1.0000   1.0000
     1.0000   1.0000   1.0000   1.0000   1.0000   1.0000   1.0000   1.0000
     1.0000   1.0000   1.0000   1.0000   1.0000   1.0000   1.0000   1.0000
     1.0000   1.0000   1.0000   1.0000   1.0000   1.0000   1.0000   1.0000
     1.0000   1.0000   1.0000   1.0000   0.2610   0.0660   0.0000   0.0000
     0.0000   0.0000   0.0000

          k =-0.1000-0.0984 0.1978 (  2164 PWs)   bands (ev):

   -66.5621 -66.5618 -32.9608 -32.9604 -32.7245 -32.7212 -32.5121 -32.5114
    -6.7130  -6.6840  -2.2390  -2.0973   3.0624   3.9838   5.9473   7.0599
     8.8003   9.0514  10.0473  11.2710  12.0095  12.0976  13.1276  14.0283
    14.4864  14.5461  15.8257  15.9685  17.1470  17.4675  17.6016  18.2490
    19.3084  19.4638  19.7433  19.9648  21.6979  22.0938  24.0363  24.4814
    25.4790  25.4940  27.7783

     occupation numbers 
     1.0000   1.0000   1.0000   1.0000   1.0000   1.0000   1.0000   1.0000
     1.0000   1.0000   1.0000   1.0000   1.0000   1.0000   1.0000   1.0000
     1.0000   1.0000   1.0000   1.0000   1.0000   1.0000   1.0000   1.0000
     1.0000   1.0000   1.0000   1.0000   1.0000   1.0000   1.0000   1.0000
     1.0000   1.0000   1.0000   1.0000   0.1255   0.0007   0.0000   0.0000
     0.0000   0.0000   0.0000

          k =-0.1000-0.0984-0.0613 (  2152 PWs)   bands (ev):

   -66.5621 -66.5616 -32.9621 -32.9590 -32.7248 -32.7207 -32.5145 -32.5088
    -7.2419  -5.7565  -3.8009  -0.4122   2.4217   3.7946   6.0739   6.5093
     8.6605  10.5038  10.6947  10.9795  12.0670  12.4963  13.0003  13.2427
    13.7934  14.8664  15.3175  15.7313  16.9114  17.7589  18.0544  18.6285
    18.9088  19.4230  19.5466  20.0152  21.6104  21.9867  24.0548  25.2739
    25.6431  26.0874  26.7669

     occupation numbers 
     1.0000   1.0000   1.0000   1.0000   1.0000   1.0000   1.0000   1.0000
     1.0000   1.0000   1.0000   1.0000   1.0000   1.0000   1.0000   1.0000
     1.0000   1.0000   1.0000   1.0000   1.0000   1.0000   1.0000   1.0000
     1.0000   1.0000   1.0000   1.0000   1.0000   1.0000   1.0000   1.0000
     1.0000   1.0000   1.0000   1.0000   0.2521   0.0040   0.0000   0.0000
     0.0000   0.0000   0.0000

          k =-0.1000-0.1992 0.0987 (  2153 PWs)   bands (ev):

   -66.5620 -66.5613 -32.9633 -32.9626 -32.7292 -32.7214 -32.5140 -32.5090
    -6.9841  -5.6243  -3.8414  -0.7876   2.0614   4.3996   4.9311   6.7634
     8.3428   9.3870  10.2160  10.9590  12.6829  13.2616  13.6129  13.9081
    13.9565  14.9431  16.1397  16.4481  16.7844  17.0650  18.0253  18.6720
    19.0521  19.4341  20.3332  20.5731  21.6233  22.1995  24.0984  24.3150
    24.3917  25.1275  27.9933

     occupation numbers 
     1.0000   1.0000   1.0000   1.0000   1.0000   1.0000   1.0000   1.0000
     1.0000   1.0000   1.0000   1.0000   1.0000   1.0000   1.0000   1.0000
     1.0000   1.0000   1.0000   1.0000   1.0000   1.0000   1.0000   1.0000
     1.0000   1.0000   1.0000   1.0000   1.0000   1.0000   1.0000   1.0000
     1.0000   1.0000   1.0000   1.0005   0.2296   0.0001   0.0000   0.0000
     0.0000   0.0000   0.0000

          k =-0.1000-0.1992 0.2283 (  2153 PWs)   bands (ev):

   -66.5618 -66.5615 -32.9636 -32.9621 -32.7271 -32.7238 -32.5118 -32.5111
    -6.5461  -6.4562  -2.2753  -2.2385   2.3960   3.5535   5.9025   7.2856
     8.2611   8.5473  10.8689  10.8814  12.6980  12.7270  13.4694  13.7217
    14.3469  14.5564  16.2007  16.2347  17.3731  17.5482  18.0688  18.4442
    19.1432  19.2100  19.9864  20.2233  21.7246  22.6152  24.1985  24.3396
    24.7761  25.1634  28.0451

     occupation numbers 
     1.0000   1.0000   1.0000   1.0000   1.0000   1.0000   1.0000   1.0000
     1.0000   1.0000   1.0000   1.0000   1.0000   1.0000   1.0000   1.0000
     1.0000   1.0000   1.0000   1.0000   1.0000   1.0000   1.0000   1.0000
     1.0000   1.0000   1.0000   1.0000   1.0000   1.0000   1.0000   1.0000
     1.0000   1.0000   1.0000   1.0000   0.0982   0.0000   0.0000   0.0000
     0.0000   0.0000   0.0000

          k =-0.1000-0.1992-0.0308 (  2145 PWs)   bands (ev):

   -66.5619 -66.5613 -32.9640 -32.9618 -32.7275 -32.7231 -32.5142 -32.5086
    -7.0261  -5.5697  -3.8172  -0.7520   2.2948   3.1296   6.1156   6.5912
     7.8531  10.0254  10.9505  11.3177  12.3759  12.6518  13.2437  13.4248
    14.2816  15.3010  15.5735  15.8746  17.2270  17.2510  18.2241  18.6898
    19.3932  19.5783  19.9076  20.0108  21.7794  22.0920  24.1893  24.5853
    24.7976  25.7355  27.3591

     occupation numbers 
     1.0000   1.0000   1.0000   1.0000   1.0000   1.0000   1.0000   1.0000
     1.0000   1.0000   1.0000   1.0000   1.0000   1.0000   1.0000   1.0000
     1.0000   1.0000   1.0000   1.0000   1.0000   1.0000   1.0000   1.0000
     1.0000   1.0000   1.0000   1.0000   1.0000   1.0000   1.0000   1.0000
     1.0000   1.0000   1.0000   1.0000   0.0568   0.0007   0.0000   0.0000
     0.0000   0.0000   0.0000

          k =-0.1000-0.3000 0.1293 (  2145 PWs)   bands (ev):

   -66.5619 -66.5610 -32.9655 -32.9647 -32.7312 -32.7233 -32.5139 -32.5089
    -6.7603  -5.4772  -3.8900  -1.1702   2.0993   4.1449   4.6120   6.3967
     8.4746   9.5166   9.8750  11.3008  12.7963  13.2364  13.4448  13.6323
    14.5645  15.2565  16.3932  16.5945  17.1144  17.6115  18.4891  18.6666
    18.9080  19.0878  20.6042  21.0234  21.8441  22.2928  23.5844  23.8332
    24.4197  24.6134  28.0440

     occupation numbers 
     1.0000   1.0000   1.0000   1.0000   1.0000   1.0000   1.0000   1.0000
     1.0000   1.0000   1.0000   1.0000   1.0000   1.0000   1.0000   1.0000
     1.0000   1.0000   1.0000   1.0000   1.0000   1.0000   1.0000   1.0000
     1.0000   1.0000   1.0000   1.0000   1.0000   1.0000   1.0000   1.0000
     1.0000   1.0000   1.0009   1.0674   0.0275   0.0000   0.0000   0.0000
     0.0000   0.0000   0.0000

          k =-0.1000-0.3000 0.2588 (  2165 PWs)   bands (ev):

   -66.5618 -66.5615 -32.9657 -32.9648 -32.7292 -32.7258 -32.5119 -32.5113
    -6.3258  -6.3160  -2.4202  -2.3047   2.2013   2.8294   6.2803   7.0448
     8.1420   8.3379  11.1077  11.1737  12.3603  12.8527  13.4263  13.5116
    14.8276  15.3062  15.9747  16.6073  17.3083  17.6715  18.5934  18.6787
    18.7712  19.4499  20.1853  20.5164  21.6687  23.1520  23.5175  23.7065
    24.7001  25.1962  28.2189

     occupation numbers 
     1.0000   1.0000   1.0000   1.0000   1.0000   1.0000   1.0000   1.0000
     1.0000   1.0000   1.0000   1.0000   1.0000   1.0000   1.0000   1.0000
     1.0000   1.0000   1.0000   1.0000   1.0000   1.0000   1.0000   1.0000
     1.0000   1.0000   1.0000   1.0000   1.0000   1.0000   1.0000   1.0000
     1.0000   1.0000   1.0000   1.0002   0.1611   0.0000   0.0000   0.0000
     0.0000   0.0000   0.0000

          k =-0.1000-0.3000-0.0003 (  2153 PWs)   bands (ev):

   -66.5620 -66.5611 -32.9654 -32.9650 -32.7295 -32.7251 -32.5141 -32.5087
    -6.7737  -5.5150  -3.7734  -1.1533   2.1485   3.1048   5.6208   6.4853
     7.9523   9.8750  10.4331  11.8545  12.0961  12.2720  13.5087  14.3058
    14.8111  15.1724  15.9608  16.2858  17.1025  17.4354  18.4880  18.7619
    19.0862  19.5845  20.3178  20.6262  21.6011  22.7553  23.6392  23.8788
    24.3525  25.2124  27.7539

     occupation numbers 
     1.0000   1.0000   1.0000   1.0000   1.0000   1.0000   1.0000   1.0000
     1.0000   1.0000   1.0000   1.0000   1.0000   1.0000   1.0000   1.0000
     1.0000   1.0000   1.0000   1.0000   1.0000   1.0000   1.0000   1.0000
     1.0000   1.0000   1.0000   1.0000   1.0000   1.0000   1.0000   1.0000
     1.0000   1.0000   1.0000   1.0012   0.2690   0.0000   0.0000   0.0000
     0.0000   0.0000   0.0000

          k =-0.1000 0.3049-0.0538 (  2148 PWs)   bands (ev):

   -66.5618 -66.5611 -32.9654 -32.9653 -32.7311 -32.7231 -32.5141 -32.5089
    -6.7796  -5.3744  -3.9980  -1.1346   2.1877   3.4962   5.2997   6.3350
     8.1950   9.8347  10.0997  11.6524  12.6103  12.6888  13.3191  13.6041
    14.3548  15.4450  16.0954  16.2926  17.6853  17.8879  18.4962  18.6894
    19.1050  19.1614  20.6457  20.8474  21.5978  21.6744  23.7418  24.0705
    24.6692  24.6957  27.8439

     occupation numbers 
     1.0000   1.0000   1.0000   1.0000   1.0000   1.0000   1.0000   1.0000
     1.0000   1.0000   1.0000   1.0000   1.0000   1.0000   1.0000   1.0000
     1.0000   1.0000   1.0000   1.0000   1.0000   1.0000   1.0000   1.0000
     1.0000   1.0000   1.0000   1.0000   1.0000   1.0000   1.0000   1.0000
     1.0000   1.0000   1.0017   1.0193   0.2754   0.1536   0.0000   0.0000
     0.0000   0.0000   0.0000

          k =-0.1000 0.3049 0.0757 (  2159 PWs)   bands (ev):

   -66.5617 -66.5615 -32.9661 -32.9647 -32.7286 -32.7257 -32.5120 -32.5114
    -6.4262  -6.1915  -2.5405  -2.2060   2.3463   2.5643   6.6047   6.8661
     8.2212   8.3880  11.0130  11.5986  12.2250  12.2664  13.3842  14.1552
    14.7070  14.7956  15.8841  16.4721  17.3762  17.7579  18.5826  18.8507
    19.0212  19.7260  20.1326  20.2560  21.7921  22.1552  23.6457  24.1277
    25.0965  25.2088  28.0996

     occupation numbers 
     1.0000   1.0000   1.0000   1.0000   1.0000   1.0000   1.0000   1.0000
     1.0000   1.0000   1.0000   1.0000   1.0000   1.0000   1.0000   1.0000
     1.0000   1.0000   1.0000   1.0000   1.0000   1.0000   1.0000   1.0000
     1.0000   1.0000   1.0000   1.0000   1.0000   1.0000   1.0000   1.0000
     1.0000   1.0000   1.0000   1.0000   0.0496   0.0002   0.0000   0.0000
     0.0000   0.0000   0.0000

          k =-0.1000 0.3049-0.1834 (  2147 PWs)   bands (ev):

   -66.5618 -66.5611 -32.9661 -32.9644 -32.7294 -32.7247 -32.5142 -32.5089
    -6.6937  -5.6503  -3.6779  -1.2678   2.0350   3.7396   5.0291   6.4990
     8.3655   9.8624  10.0005  11.7425  12.0056  12.7006  13.6384  13.7775
    14.9760  15.2242  15.8892  16.0279  17.4027  17.7445  18.4313  18.8175
    19.3289  19.4113  20.2444  20.6302  21.7285  22.1985  23.8587  23.8772
    24.5614  24.7901  27.8920

     occupation numbers 
     1.0000   1.0000   1.0000   1.0000   1.0000   1.0000   1.0000   1.0000
     1.0000   1.0000   1.0000   1.0000   1.0000   1.0000   1.0000   1.0000
     1.0000   1.0000   1.0000   1.0000   1.0000   1.0000   1.0000   1.0000
     1.0000   1.0000   1.0000   1.0000   1.0000   1.0000   1.0000   1.0000
     1.0000   1.0000   1.0000   1.0013   0.0946   0.0001   0.0000   0.0000
     0.0000   0.0000   0.0000

          k =-0.1000 0.2041-0.0233 (  2150 PWs)   bands (ev):

   -66.5620 -66.5613 -32.9643 -32.9625 -32.7287 -32.7210 -32.5142 -32.5093
    -7.0228  -5.4074  -4.0711  -0.7103   2.2494   3.3574   6.0655   6.6464
     7.8857  10.1652  10.4987  11.6932  12.1940  12.6254  12.8880  13.7276
    14.2384  14.4105  15.5579  15.9019  17.5610  18.2824  18.6508  18.8707
    18.9994  19.2306  20.0438  20.4254  21.0471  21.5359  24.1639  24.5787
    25.1199  25.3588  27.5253

     occupation numbers 
     1.0000   1.0000   1.0000   1.0000   1.0000   1.0000   1.0000   1.0000
     1.0000   1.0000   1.0000   1.0000   1.0000   1.0000   1.0000   1.0000
     1.0000   1.0000   1.0000   1.0000   1.0000   1.0000   1.0000   1.0000
     1.0000   1.0000   1.0000   1.0000   1.0000   1.0000   1.0000   1.0000
     1.0000   1.0000   1.0000   1.0000   1.0738   0.4053   0.0000   0.0000
     0.0000   0.0000   0.0000

          k =-0.1000 0.2041 0.1062 (  2149 PWs)   bands (ev):

   -66.5618 -66.5615 -32.9647 -32.9616 -32.7263 -32.7234 -32.5122 -32.5114
    -6.6809  -6.2654  -2.5383  -2.0293   2.3965   3.2798   6.2440   7.2892
     8.3485   8.7159  10.7600  11.9925  12.1449  12.1914  13.5423  13.6275
    13.6335  14.8228  15.3446  16.1583  17.3448  17.9849  18.6964  18.9677
    19.2054  19.3749  19.7911  19.9928  21.2803  21.9502  24.2213  24.6545
    25.3259  25.4822  28.0115

     occupation numbers 
     1.0000   1.0000   1.0000   1.0000   1.0000   1.0000   1.0000   1.0000
     1.0000   1.0000   1.0000   1.0000   1.0000   1.0000   1.0000   1.0000
     1.0000   1.0000   1.0000   1.0000   1.0000   1.0000   1.0000   1.0000
     1.0000   1.0000   1.0000   1.0000   1.0000   1.0000   1.0000   1.0000
     1.0000   1.0000   1.0000   1.0000   0.9749   0.0069   0.0000   0.0000
     0.0000   0.0000   0.0000

          k =-0.1000 0.2041-0.1528 (  2153 PWs)   bands (ev):

   -66.5619 -66.5615 -32.9639 -32.9628 -32.7272 -32.7225 -32.5145 -32.5091
    -6.8644  -5.8546  -3.6063  -0.9982   2.0410   4.6925   4.7600   6.8231
     8.3965   9.8173   9.9606  11.6732  12.0164  12.3651  13.4126  14.0378
    14.1697  15.2344  15.2791  16.1099  17.1303  18.1226  18.5260  18.8269
    19.1666  19.6624  19.6948  20.2042  21.0230  22.1685  23.9858  24.4427
    24.7936  25.0395  27.8832

     occupation numbers 
     1.0000   1.0000   1.0000   1.0000   1.0000   1.0000   1.0000   1.0000
     1.0000   1.0000   1.0000   1.0000   1.0000   1.0000   1.0000   1.0000
     1.0000   1.0000   1.0000   1.0000   1.0000   1.0000   1.0000   1.0000
     1.0000   1.0000   1.0000   1.0000   1.0000   1.0000   1.0000   1.0000
     1.0000   1.0000   1.0000   1.0000   1.0673   0.0002   0.0000   0.0000
     0.0000   0.0000   0.0000

          k =-0.1000 0.1032 0.0072 (  2149 PWs)   bands (ev):

   -66.5621 -66.5615 -32.9625 -32.9590 -32.7260 -32.7188 -32.5144 -32.5094
    -7.2757  -5.5325  -4.0907  -0.2615   2.2983   3.7910   6.2392   6.7205
     8.3257  10.5923  10.9774  11.1788  11.8644  12.5764  12.7721  12.9884
    13.9004  14.3334  15.2776  15.3662  17.1401  18.3240  18.3991  18.8062
    19.1030  19.5276  19.5278  19.6704  21.4333  21.4344  24.2420  25.3150
    25.5666  26.0710  26.9591

     occupation numbers 
     1.0000   1.0000   1.0000   1.0000   1.0000   1.0000   1.0000   1.0000
     1.0000   1.0000   1.0000   1.0000   1.0000   1.0000   1.0000   1.0000
     1.0000   1.0000   1.0000   1.0000   1.0000   1.0000   1.0000   1.0000
     1.0000   1.0000   1.0000   1.0000   1.0000   1.0000   1.0000   1.0000
     1.0000   1.0000   1.0000   1.0000   0.6570   0.6544   0.0000   0.0000
     0.0000   0.0000   0.0000

          k =-0.1000 0.1032 0.1368 (  2155 PWs)   bands (ev):

   -66.5619 -66.5618 -32.9623 -32.9593 -32.7239 -32.7209 -32.5122 -32.5117
    -6.8752  -6.4762  -2.4453  -1.9365   2.9605   3.8995   6.0805   7.1562
     8.9661   9.0388  10.7991  10.8951  12.1534  12.2741  12.5285  13.6142
    14.1382  14.5687  15.1298  15.9706  17.5260  17.7335  18.2314  18.7114
    19.0954  19.2486  19.6309  20.2620  20.6753  22.2325  24.4473  24.5304
    25.5481  25.7187  27.9679

     occupation numbers 
     1.0000   1.0000   1.0000   1.0000   1.0000   1.0000   1.0000   1.0000
     1.0000   1.0000   1.0000   1.0000   1.0000   1.0000   1.0000   1.0000
     1.0000   1.0000   1.0000   1.0000   1.0000   1.0000   1.0000   1.0000
     1.0000   1.0000   1.0000   1.0000   1.0000   1.0000   1.0000   1.0000
     1.0000   1.0000   1.0000   1.0000   1.0025   0.0001   0.0000   0.0000
     0.0000   0.0000   0.0000

          k =-0.1000 0.1032-0.1223 (  2159 PWs)   bands (ev):

   -66.5621 -66.5617 -32.9612 -32.9605 -32.7246 -32.7201 -32.5147 -32.5092
    -7.1253  -5.9703  -3.6324  -0.6019   2.2072   4.8998   5.3127   7.2030
     8.1117  10.0294  10.5142  11.1197  11.8520  12.1629  12.6891  13.7044
    14.3733  14.9420  14.9791  16.4422  16.6182  18.1206  18.4110  18.8327
    19.0102  19.3089  19.3828  19.8986  20.8733  22.2503  23.7763  24.6595
    25.2305  25.7848  27.5954

     occupation numbers 
     1.0000   1.0000   1.0000   1.0000   1.0000   1.0000   1.0000   1.0000
     1.0000   1.0000   1.0000   1.0000   1.0000   1.0000   1.0000   1.0000
     1.0000   1.0000   1.0000   1.0000   1.0000   1.0000   1.0000   1.0000
     1.0000   1.0000   1.0000   1.0000   1.0000   1.0000   1.0000   1.0000
     1.0000   1.0000   1.0000   1.0000   1.0245   0.0000   0.0000   0.0000
     0.0000   0.0000   0.0000

          k =-0.2000 0.0049 0.0754 (  2146 PWs)   bands (ev):

   -66.5511 -66.5507 -32.9608 -32.9565 -32.7524 -32.7487 -32.5589 -32.5545
    -6.8308  -5.6863  -3.1131  -0.8080   3.1776   4.0122   6.2607   6.6910
     9.3279   9.3842  10.1900  10.7914  11.4226  11.5279  11.7718  12.5327
    13.5495  13.9529  15.2127  15.6609  16.8623  17.4996  17.8755  18.6570
    19.2436  19.6026  19.7468  20.3055  22.1264  22.5370  24.4117  24.7118
    25.3811  25.5854  27.9838

     occupation numbers 
     1.0000   1.0000   1.0000   1.0000   1.0000   1.0000   1.0000   1.0000
     1.0000   1.0000   1.0000   1.0000   1.0000   1.0000   1.0000   1.0000
     1.0000   1.0000   1.0000   1.0000   1.0000   1.0000   1.0000   1.0000
     1.0000   1.0000   1.0000   1.0000   1.0000   1.0000   1.0000   1.0000
     1.0000   1.0000   1.0000   1.0000   0.0004   0.0000   0.0000   0.0000
     0.0000   0.0000   0.0000

          k =-0.2000 0.0049 0.2050 (  2153 PWs)   bands (ev):

   -66.5510 -66.5509 -32.9595 -32.9577 -32.7515 -32.7495 -32.5590 -32.5546
    -6.5401  -6.1679  -2.5708  -1.2637   3.0754   4.4221   6.1728   7.0875
     8.6798   9.3305  10.0575  10.7619  10.9172  11.1946  12.2037  12.6683
    13.7726  14.7947  14.8804  16.2632  16.7920  17.1690  17.6848  18.8921
    19.0715  19.7961  19.9895  20.0850  21.6421  23.0631  23.8308  24.4237
    25.1577  25.5954  27.5772

     occupation numbers 
     1.0000   1.0000   1.0000   1.0000   1.0000   1.0000   1.0000   1.0000
     1.0000   1.0000   1.0000   1.0000   1.0000   1.0000   1.0000   1.0000
     1.0000   1.0000   1.0000   1.0000   1.0000   1.0000   1.0000   1.0000
     1.0000   1.0000   1.0000   1.0000   1.0000   1.0000   1.0000   1.0000
     1.0000   1.0000   1.0000   1.0000   0.1992   0.0000   0.0000   0.0000
     0.0000   0.0000   0.0000

          k =-0.2000 0.0049-0.0541 (  2146 PWs)   bands (ev):

   -66.5510 -66.5507 -32.9600 -32.9573 -32.7514 -32.7496 -32.5612 -32.5526
    -6.9531  -5.1781  -3.9555   0.3155   2.0130   4.7717   5.5856   7.0144
     8.7258   9.7658  10.0451  11.3647  11.5354  11.6732  11.7580  12.5051
    13.5571  14.2083  15.0525  15.2362  17.1628  17.2411  17.9753  18.7464
    18.9506  19.4618  19.8177  20.2937  21.8279  22.7848  23.9160  25.3473
    25.4184  25.6399  27.0958

     occupation numbers 
     1.0000   1.0000   1.0000   1.0000   1.0000   1.0000   1.0000   1.0000
     1.0000   1.0000   1.0000   1.0000   1.0000   1.0000   1.0000   1.0000
     1.0000   1.0000   1.0000   1.0000   1.0000   1.0000   1.0000   1.0000
     1.0000   1.0000   1.0000   1.0000   1.0000   1.0000   1.0000   1.0000
     1.0000   1.0000   1.0000   1.0000   0.0332   0.0000   0.0000   0.0000
     0.0000   0.0000   0.0000

          k =-0.2000-0.0960 0.1060 (  2149 PWs)   bands (ev):

   -66.5511 -66.5507 -32.9608 -32.9576 -32.7539 -32.7502 -32.5587 -32.5545
    -6.7094  -5.7415  -2.9883  -0.9647   2.8820   4.4042   5.6030   7.0467
     8.7618   8.7959  10.1390  10.8709  11.5921  11.7599  12.0855  13.2516
    13.3919  14.8295  15.2790  15.7267  16.6735  16.8795  17.6712  18.8631
    19.5214  19.6443  19.7305  20.7464  22.4553  22.5714  24.0522  24.5778
    25.0969  25.1348  28.1877

     occupation numbers 
     1.0000   1.0000   1.0000   1.0000   1.0000   1.0000   1.0000   1.0000
     1.0000   1.0000   1.0000   1.0000   1.0000   1.0000   1.0000   1.0000
     1.0000   1.0000   1.0000   1.0000   1.0000   1.0000   1.0000   1.0000
     1.0000   1.0000   1.0000   1.0000   1.0000   1.0000   1.0000   1.0000
     1.0000   1.0000   1.0000   1.0064   0.0000   0.0000   0.0000   0.0000
     0.0000   0.0000   0.0000

          k =-0.2000-0.0960 0.2355 (  2149 PWs)   bands (ev):

   -66.5508 -66.5508 -32.9591 -32.9590 -32.7531 -32.7509 -32.5588 -32.5544
    -6.5643  -5.9968  -2.6756  -1.1853   3.1867   3.7114   6.5084   6.5197
     8.6050   9.3955   9.6533  10.7222  11.6310  12.0083  12.1346  12.9859
    13.7726  14.2848  15.5949  15.7550  16.7835  17.2580  17.4484  18.9877
    19.0055  19.6569  19.8154  20.4114  22.5025  22.9299  23.8303  24.5949
    24.7564  25.7711  27.4034

     occupation numbers 
     1.0000   1.0000   1.0000   1.0000   1.0000   1.0000   1.0000   1.0000
     1.0000   1.0000   1.0000   1.0000   1.0000   1.0000   1.0000   1.0000
     1.0000   1.0000   1.0000   1.0000   1.0000   1.0000   1.0000   1.0000
     1.0000   1.0000   1.0000   1.0000   1.0000   1.0000   1.0000   1.0000
     1.0000   1.0000   1.0000   1.0000   0.0000   0.0000   0.0000   0.0000
     0.0000   0.0000   0.0000

          k =-0.2000-0.0960-0.0236 (  2157 PWs)   bands (ev):

   -66.5512 -66.5507 -32.9607 -32.9578 -32.7528 -32.7514 -32.5611 -32.5526
    -6.9078  -5.0592  -3.9835   0.2180   1.9894   4.4385   5.4756   6.7275
     8.7867   9.4456  10.2024  11.1298  12.0050  12.1074  12.4220  12.7313
    13.2386  14.5340  14.6092  15.3626  16.9808  17.0054  18.1983  18.4414
    18.7926  19.9178  19.9350  20.3890  22.3767  22.7399  24.0958  24.8144
    25.2705  25.7953  27.3668

     occupation numbers 
     1.0000   1.0000   1.0000   1.0000   1.0000   1.0000   1.0000   1.0000
     1.0000   1.0000   1.0000   1.0000   1.0000   1.0000   1.0000   1.0000
     1.0000   1.0000   1.0000   1.0000   1.0000   1.0000   1.0000   1.0000
     1.0000   1.0000   1.0000   1.0000   1.0000   1.0000   1.0000   1.0000
     1.0000   1.0000   1.0000   1.0000   0.0000   0.0000   0.0000   0.0000
     0.0000   0.0000   0.0000

          k =-0.2000-0.1968 0.1365 (  2144 PWs)   bands (ev):

   -66.5510 -66.5502 -32.9615 -32.9602 -32.7561 -32.7526 -32.5588 -32.5549
    -6.4690  -5.6798  -2.9506  -1.2151   2.4898   4.3315   5.2685   7.4738
     8.0308   8.3795  10.1241  10.3665  12.0491  12.2146  12.9050  13.2818
    13.6739  14.8993  15.8123  15.9739  16.6429  16.7936  17.9241  18.8943
    19.3298  19.5438  20.0400  21.2376  22.4164  22.9748  23.9556  24.0877
    24.7981  24.8725  28.4505

     occupation numbers 
     1.0000   1.0000   1.0000   1.0000   1.0000   1.0000   1.0000   1.0000
     1.0000   1.0000   1.0000   1.0000   1.0000   1.0000   1.0000   1.0000
     1.0000   1.0000   1.0000   1.0000   1.0000   1.0000   1.0000   1.0000
     1.0000   1.0000   1.0000   1.0000   1.0000   1.0000   1.0000   1.0000
     1.0000   1.0000   1.0000   1.0272   0.0000   0.0000   0.0000   0.0000
     0.0000   0.0000   0.0000

          k =-0.2000-0.1968 0.2660 (  2156 PWs)   bands (ev):

   -66.5508 -66.5507 -32.9613 -32.9608 -32.7556 -32.7534 -32.5591 -32.5549
    -6.4384  -5.7684  -2.7660  -1.2768   2.9500   3.0393   6.4426   6.6046
     7.9202   9.4645   9.8766  10.7674  11.5678  12.4126  12.7855  13.4199
    14.0294  14.0415  15.5064  15.8800  16.7036  17.3245  18.2442  18.5532
    18.9044  19.6046  20.0193  20.8810  22.4392  23.4091  24.0241  24.2475
    24.3260  25.9271  27.6489

     occupation numbers 
     1.0000   1.0000   1.0000   1.0000   1.0000   1.0000   1.0000   1.0000
     1.0000   1.0000   1.0000   1.0000   1.0000   1.0000   1.0000   1.0000
     1.0000   1.0000   1.0000   1.0000   1.0000   1.0000   1.0000   1.0000
     1.0000   1.0000   1.0000   1.0000   1.0000   1.0000   1.0000   1.0000
     1.0000   1.0000   1.0000   1.0263   0.0000   0.0000   0.0000   0.0000
     0.0000   0.0000   0.0000

          k =-0.2000-0.1968 0.0069 (  2147 PWs)   bands (ev):

   -66.5511 -66.5503 -32.9618 -32.9602 -32.7552 -32.7537 -32.5610 -32.5529
    -6.7095  -4.9184  -3.9869  -0.2214   2.0198   3.9259   5.5174   6.6600
     8.3408   9.0564  10.1109  11.0878  12.0184  12.4288  12.7425  13.2886
    13.7629  14.8972  15.0101  15.3651  16.5045  17.0117  18.1423  18.7035
    19.6044  19.7630  20.0982  20.5020  22.5105  23.0104  24.0782  24.2572
    24.5615  25.7379  27.7903

     occupation numbers 
     1.0000   1.0000   1.0000   1.0000   1.0000   1.0000   1.0000   1.0000
     1.0000   1.0000   1.0000   1.0000   1.0000   1.0000   1.0000   1.0000
     1.0000   1.0000   1.0000   1.0000   1.0000   1.0000   1.0000   1.0000
     1.0000   1.0000   1.0000   1.0000   1.0000   1.0000   1.0000   1.0000
     1.0000   1.0000   1.0000   1.0002   0.0000   0.0000   0.0000   0.0000
     0.0000   0.0000   0.0000

          k =-0.2000-0.2976 0.1670 (  2151 PWs)   bands (ev):

   -66.5510 -66.5502 -32.9628 -32.9627 -32.7579 -32.7541 -32.5593 -32.5554
    -6.2836  -5.5383  -3.0451  -1.3897   2.2997   3.8054   5.5044   7.4422
     7.7440   8.4644  10.1947  10.2089  11.8009  12.6580  12.7177  13.5211
    14.2887  14.3269  15.8704  16.4001  17.0781  17.2402  18.6056  18.6877
    18.9090  19.3538  20.5267  21.1433  22.2762  22.9474  23.9464  23.9536
    24.5832  25.0349  28.2654

     occupation numbers 
     1.0000   1.0000   1.0000   1.0000   1.0000   1.0000   1.0000   1.0000
     1.0000   1.0000   1.0000   1.0000   1.0000   1.0000   1.0000   1.0000
     1.0000   1.0000   1.0000   1.0000   1.0000   1.0000   1.0000   1.0000
     1.0000   1.0000   1.0000   1.0000   1.0000   1.0000   1.0000   1.0000
     1.0000   1.0000   1.0002   1.0807   0.0000   0.0000   0.0000   0.0000
     0.0000   0.0000   0.0000

          k =-0.2000-0.2976 0.2965 (  2147 PWs)   bands (ev):

   -66.5506 -66.5505 -32.9629 -32.9624 -32.7571 -32.7548 -32.5595 -32.5554
    -6.2416  -5.6633  -2.7743  -1.4881   2.5649   2.8225   6.4125   6.8829
     7.5848   9.3558   9.8941  10.8561  11.3503  12.4722  12.8286  13.4218
    14.3253  14.7330  15.4502  15.9880  16.6799  17.3663  18.4687  18.7534
    19.2843  19.5336  20.2652  21.1745  21.6359  23.6809  23.8901  23.9589
    24.4974  25.8452  27.8862

     occupation numbers 
     1.0000   1.0000   1.0000   1.0000   1.0000   1.0000   1.0000   1.0000
     1.0000   1.0000   1.0000   1.0000   1.0000   1.0000   1.0000   1.0000
     1.0000   1.0000   1.0000   1.0000   1.0000   1.0000   1.0000   1.0000
     1.0000   1.0000   1.0000   1.0000   1.0000   1.0000   1.0000   1.0000
     1.0000   1.0000   1.0000   1.0715   0.2090   0.0000   0.0000   0.0000
     0.0000   0.0000   0.0000

          k =-0.2000-0.2976 0.0374 (  2147 PWs)   bands (ev):

   -66.5509 -66.5501 -32.9628 -32.9625 -32.7568 -32.7551 -32.5615 -32.5533
    -6.4895  -4.8463  -3.9946  -0.6637   2.0795   3.9583   5.1644   6.5060
     8.4293   9.0706   9.6456  11.1766  11.4879  12.3726  12.9617  13.7998
    14.3013  14.4923  15.6458  15.7312  16.7309  17.1589  18.5360  18.7957
    19.1276  19.8026  20.5311  20.9260  21.9967  23.3620  23.8214  23.9752
    24.3808  25.3172  27.8396

     occupation numbers 
     1.0000   1.0000   1.0000   1.0000   1.0000   1.0000   1.0000   1.0000
     1.0000   1.0000   1.0000   1.0000   1.0000   1.0000   1.0000   1.0000
     1.0000   1.0000   1.0000   1.0000   1.0000   1.0000   1.0000   1.0000
     1.0000   1.0000   1.0000   1.0000   1.0000   1.0000   1.0000   1.0000
     1.0000   1.0000   1.0003   1.0378   0.0035   0.0000   0.0000   0.0000
     0.0000   0.0000   0.0000

          k =-0.2000 0.3073-0.0161 (  2151 PWs)   bands (ev):

   -66.5509 -66.5503 -32.9637 -32.9626 -32.7575 -32.7535 -32.5598 -32.5556
    -6.3213  -5.4212  -3.1862  -1.3051   2.3861   3.3099   6.1413   7.2848
     7.6016   8.8074  10.1824  10.2147  11.8212  12.5932  12.9743  13.0857
    13.7469  14.6026  15.8153  16.0663  17.3243  17.4827  18.4371  18.5435
    19.0396  19.7975  20.7879  20.8133  21.7329  22.5354  24.0781  24.1874
    24.9291  25.3605  27.8948

     occupation numbers 
     1.0000   1.0000   1.0000   1.0000   1.0000   1.0000   1.0000   1.0000
     1.0000   1.0000   1.0000   1.0000   1.0000   1.0000   1.0000   1.0000
     1.0000   1.0000   1.0000   1.0000   1.0000   1.0000   1.0000   1.0000
     1.0000   1.0000   1.0000   1.0000   1.0000   1.0000   1.0000   1.0000
     1.0000   1.0000   1.0104   1.0137   0.0908   0.0000   0.0000   0.0000
     0.0000   0.0000   0.0000

          k =-0.2000 0.3073 0.1134 (  2145 PWs)   bands (ev):

   -66.5506 -66.5505 -32.9642 -32.9617 -32.7566 -32.7543 -32.5598 -32.5557
    -6.1245  -5.7822  -2.6738  -1.6389   2.3181   3.1906   6.0540   7.4272
     7.6543   9.4352   9.7020  10.5410  11.6350  11.9444  12.8383  14.1244
    14.4023  14.4231  14.8809  16.2087  16.5774  17.3491  18.7140  18.8031
    19.0200  20.0240  20.5075  20.7407  21.6405  22.9389  24.0348  24.1406
    25.0099  25.6814  27.8515

     occupation numbers 
     1.0000   1.0000   1.0000   1.0000   1.0000   1.0000   1.0000   1.0000
     1.0000   1.0000   1.0000   1.0000   1.0000   1.0000   1.0000   1.0000
     1.0000   1.0000   1.0000   1.0000   1.0000   1.0000   1.0000   1.0000
     1.0000   1.0000   1.0000   1.0000   1.0000   1.0000   1.0000   1.0000
     1.0000   1.0000   1.0002   1.0060   0.2018   0.0000   0.0000   0.0000
     0.0000   0.0000   0.0000

          k =-0.2000 0.3073-0.1456 (  2141 PWs)   bands (ev):

   -66.5508 -66.5501 -32.9636 -32.9623 -32.7562 -32.7545 -32.5618 -32.5535
    -6.4312  -4.9304  -3.9593  -0.7667   2.1237   4.5197   4.7260   6.4449
     8.6259   9.3547   9.3762  11.0883  11.2393  12.2377  13.1048  13.6652
    14.0415  14.5011  15.3976  16.1616  17.1661  17.3427  18.2826  18.7327
    19.4591  19.5212  20.5714  20.9824  22.1100  22.5889  23.8951  24.1566
    24.8345  24.9022  27.7451

     occupation numbers 
     1.0000   1.0000   1.0000   1.0000   1.0000   1.0000   1.0000   1.0000
     1.0000   1.0000   1.0000   1.0000   1.0000   1.0000   1.0000   1.0000
     1.0000   1.0000   1.0000   1.0000   1.0000   1.0000   1.0000   1.0000
     1.0000   1.0000   1.0000   1.0000   1.0000   1.0000   1.0000   1.0000
     1.0000   1.0000   1.0005   1.0549   0.0005   0.0000   0.0000   0.0000
     0.0000   0.0000   0.0000

          k =-0.2000 0.2065 0.0144 (  2148 PWs)   bands (ev):

   -66.5509 -66.5504 -32.9632 -32.9602 -32.7555 -32.7513 -32.5599 -32.5553
    -6.5445  -5.4291  -3.2567  -1.0329   2.6971   3.1860   6.7492   7.0098
     7.8515   9.1934  10.1270  10.3890  11.9568  12.3137  12.6984  12.8098
    13.7547  14.0180  15.2422  15.6522  17.3214  17.3731  18.6433  18.6931
    18.7882  20.1732  20.2590  20.5012  21.6742  22.3105  24.3086  24.3192
    25.6035  25.6993  27.6628

     occupation numbers 
     1.0000   1.0000   1.0000   1.0000   1.0000   1.0000   1.0000   1.0000
     1.0000   1.0000   1.0000   1.0000   1.0000   1.0000   1.0000   1.0000
     1.0000   1.0000   1.0000   1.0000   1.0000   1.0000   1.0000   1.0000
     1.0000   1.0000   1.0000   1.0000   1.0000   1.0000   1.0000   1.0000
     1.0000   1.0000   1.0000   1.0002   0.1538   0.0000   0.0000   0.0000
     0.0000   0.0000   0.0000

          k =-0.2000 0.2065 0.1440 (  2141 PWs)   bands (ev):

   -66.5507 -66.5506 -32.9631 -32.9599 -32.7544 -32.7521 -32.5597 -32.5556
    -6.1921  -6.0128  -2.5530  -1.6037   2.3780   3.9591   5.7695   7.7553
     7.8899   9.5743   9.5995  10.4982  11.1329  12.4853  12.9010  13.2931
    13.4018  14.3982  15.1898  16.1063  16.5771  17.2545  18.2950  18.9906
    19.5153  19.6803  20.1452  20.5262  22.1033  22.3730  24.1382  24.3860
    25.3745  25.4202  27.9521

     occupation numbers 
     1.0000   1.0000   1.0000   1.0000   1.0000   1.0000   1.0000   1.0000
     1.0000   1.0000   1.0000   1.0000   1.0000   1.0000   1.0000   1.0000
     1.0000   1.0000   1.0000   1.0000   1.0000   1.0000   1.0000   1.0000
     1.0000   1.0000   1.0000   1.0000   1.0000   1.0000   1.0000   1.0000
     1.0000   1.0000   1.0000   1.0002   0.0006   0.0000   0.0000   0.0000
     0.0000   0.0000   0.0000

          k =-0.2000 0.2065-0.1151 (  2145 PWs)   bands (ev):

   -66.5508 -66.5504 -32.9618 -32.9614 -32.7542 -32.7525 -32.5619 -32.5533
    -6.5897  -5.0988  -3.9050  -0.4592   2.1209   4.4069   5.4404   6.7271
     8.4149   9.4388   9.6537  11.0367  11.1341  12.3314  12.4114  13.5345
    13.8079  14.3143  15.0175  16.2233  17.2541  17.2636  18.0911  18.7537
    18.9720  20.2751  20.2921  20.5473  21.6253  22.6008  23.9467  24.2691
    25.0355  25.2482  27.6974

     occupation numbers 
     1.0000   1.0000   1.0000   1.0000   1.0000   1.0000   1.0000   1.0000
     1.0000   1.0000   1.0000   1.0000   1.0000   1.0000   1.0000   1.0000
     1.0000   1.0000   1.0000   1.0000   1.0000   1.0000   1.0000   1.0000
     1.0000   1.0000   1.0000   1.0000   1.0000   1.0000   1.0000   1.0000
     1.0000   1.0000   1.0000   1.0004   0.2263   0.0000   0.0000   0.0000
     0.0000   0.0000   0.0000

          k =-0.2000 0.1057 0.0449 (  2145 PWs)   bands (ev):

   -66.5510 -66.5506 -32.9619 -32.9576 -32.7531 -32.7492 -32.5594 -32.5549
    -6.7629  -5.5512  -3.2240  -0.8244   3.0681   3.4877   6.7226   6.8043
     8.5837   9.4602  10.1174  10.7923  11.8528  12.0845  12.1247  12.2755
    13.1322  14.3796  14.5657  15.6076  17.2162  17.4031  18.4544  19.0111
    19.1056  19.2112  20.0307  20.1915  22.1368  22.1869  24.5107  24.5650
    25.6088  26.0296  27.6274

     occupation numbers 
     1.0000   1.0000   1.0000   1.0000   1.0000   1.0000   1.0000   1.0000
     1.0000   1.0000   1.0000   1.0000   1.0000   1.0000   1.0000   1.0000
     1.0000   1.0000   1.0000   1.0000   1.0000   1.0000   1.0000   1.0000
     1.0000   1.0000   1.0000   1.0000   1.0000   1.0000   1.0000   1.0000
     1.0000   1.0000   1.0000   1.0000   0.0003   0.0001   0.0000   0.0000
     0.0000   0.0000   0.0000

          k =-0.2000 0.1057 0.1745 (  2147 PWs)   bands (ev):

   -66.5508 -66.5508 -32.9611 -32.9580 -32.7522 -32.7500 -32.5593 -32.5551
    -6.3811  -6.1745  -2.5136  -1.4387   2.7131   4.5965   5.7726   7.6999
     8.1361   9.5335   9.9117  10.5560  11.1363  11.3943  12.3793  13.1700
    13.4940  14.0766  15.3397  16.2633  16.6663  17.1659  18.4028  18.5635
    19.0948  19.9840  20.0642  20.2713  21.4412  22.8822  24.0109  24.4352
    25.3382  25.4010  27.9135

     occupation numbers 
     1.0000   1.0000   1.0000   1.0000   1.0000   1.0000   1.0000   1.0000
     1.0000   1.0000   1.0000   1.0000   1.0000   1.0000   1.0000   1.0000
     1.0000   1.0000   1.0000   1.0000   1.0000   1.0000   1.0000   1.0000
     1.0000   1.0000   1.0000   1.0000   1.0000   1.0000   1.0000   1.0000
     1.0000   1.0000   1.0000   1.0000   0.6374   0.0000   0.0000   0.0000
     0.0000   0.0000   0.0000

          k =-0.2000 0.1057-0.0846 (  2145 PWs)   bands (ev):

   -66.5509 -66.5506 -32.9603 -32.9590 -32.7521 -32.7502 -32.5615 -32.5529
    -6.8203  -5.2014  -3.9090   0.0136   2.0723   4.5039   5.9108   7.2214
     8.1333   9.7866   9.7952  11.1208  11.2210  11.7507  12.3833  12.4483
    14.0108  14.1167  15.0027  15.7836  17.1500  17.2274  18.3437  18.6026
    18.8074  19.8925  20.0247  20.3739  21.3962  22.7427  23.8559  24.7877
    25.3512  25.4786  27.4688

     occupation numbers 
     1.0000   1.0000   1.0000   1.0000   1.0000   1.0000   1.0000   1.0000
     1.0000   1.0000   1.0000   1.0000   1.0000   1.0000   1.0000   1.0000
     1.0000   1.0000   1.0000   1.0000   1.0000   1.0000   1.0000   1.0000
     1.0000   1.0000   1.0000   1.0000   1.0000   1.0000   1.0000   1.0000
     1.0000   1.0000   1.0000   1.0000   0.7477   0.0000   0.0000   0.0000
     0.0000   0.0000   0.0000

          k =-0.3000 0.0073 0.1132 (  2170 PWs)   bands (ev):

   -66.5377 -66.5373 -32.9762 -32.9709 -32.8055 -32.8054 -32.5776 -32.5761
    -5.9878  -5.5562  -1.9290  -1.6091   3.3620   4.0097   6.5711   6.8338
     7.8610   9.1920   9.7190  10.3568  10.5314  11.2760  11.3701  12.4887
    13.5035  13.7474  15.3126  15.5749  16.2952  16.9902  17.8965  18.3756
    19.0591  19.1498  20.6475  20.9587  22.8496  23.0965  24.1897  24.2975
    25.0670  25.1948  27.8172

     occupation numbers 
     1.0000   1.0000   1.0000   1.0000   1.0000   1.0000   1.0000   1.0000
     1.0000   1.0000   1.0000   1.0000   1.0000   1.0000   1.0000   1.0000
     1.0000   1.0000   1.0000   1.0000   1.0000   1.0000   1.0000   1.0000
     1.0000   1.0000   1.0000   1.0000   1.0000   1.0000   1.0000   1.0000
     1.0000   1.0000   1.0017   1.0475   0.0000   0.0000   0.0000   0.0000
     0.0000   0.0000   0.0000

          k =-0.3000 0.0073 0.2427 (  2161 PWs)   bands (ev):

   -66.5375 -66.5373 -32.9749 -32.9717 -32.8054 -32.8053 -32.5796 -32.5739
    -6.1614  -5.1605  -3.0964  -0.1979   2.4001   4.7435   5.9658   7.5538
     7.7541   8.4225   9.0740  10.8225  11.2446  11.4751  11.8516  12.2096
    13.1330  14.3116  14.4714  16.0799  16.5170  16.7323  17.6593  18.5628
    18.7884  19.2917  20.7001  20.8869  22.4902  23.5080  23.7766  24.5779
    24.9258  25.0454  27.3715

     occupation numbers 
     1.0000   1.0000   1.0000   1.0000   1.0000   1.0000   1.0000   1.0000
     1.0000   1.0000   1.0000   1.0000   1.0000   1.0000   1.0000   1.0000
     1.0000   1.0000   1.0000   1.0000   1.0000   1.0000   1.0000   1.0000
     1.0000   1.0000   1.0000   1.0000   1.0000   1.0000   1.0000   1.0000
     1.0000   1.0000   1.0036   1.0276   0.0000   0.0000   0.0000   0.0000
     0.0000   0.0000   0.0000

          k =-0.3000 0.0073-0.0164 (  2149 PWs)   bands (ev):

   -66.5375 -66.5372 -32.9746 -32.9721 -32.8053 -32.8052 -32.5805 -32.5726
    -6.3281  -4.7062  -3.4878  -0.0605   2.5701   4.2237   6.0704   7.1025
     8.2913   8.6901   8.9897  10.8474  11.3057  11.7880  12.0908  12.3383
    13.1612  13.9606  14.5040  14.8332  16.5002  17.4948  17.7095  18.2395
    18.6598  19.1218  20.5694  21.0836  22.5563  23.3436  24.2649  24.7087
    25.1672  25.4012  27.7148

     occupation numbers 
     1.0000   1.0000   1.0000   1.0000   1.0000   1.0000   1.0000   1.0000
     1.0000   1.0000   1.0000   1.0000   1.0000   1.0000   1.0000   1.0000
     1.0000   1.0000   1.0000   1.0000   1.0000   1.0000   1.0000   1.0000
     1.0000   1.0000   1.0000   1.0000   1.0000   1.0000   1.0000   1.0000
     1.0000   1.0000   1.0005   1.0811   0.0000   0.0000   0.0000   0.0000
     0.0000   0.0000   0.0000

          k =-0.3000-0.0935 0.1437 (  2166 PWs)   bands (ev):

   -66.5376 -66.5372 -32.9756 -32.9712 -32.8070 -32.8066 -32.5778 -32.5762
    -5.8701  -5.6085  -1.8024  -1.7375   3.5203   3.6982   6.4476   6.8463
     7.3871   9.2770   9.4204  10.3168  10.8384  11.3470  11.6573  12.7001
    13.4166  14.8978  14.9886  15.2265  16.3075  16.5485  17.8161  18.8664
    19.1560  19.2039  20.4727  21.3651  23.0672  23.2631  23.9796  24.2008
[...]
     0.0000   0.0000   0.0000

          k = 0.5000-0.1130-0.0285 (  2168 PWs)   bands (ev):

   -66.5222 -66.5221 -33.0350 -33.0327 -32.8462 -32.8455 -32.5760 -32.5748
    -5.1096  -4.6216  -2.3024  -1.0774   2.9975   3.8097   6.2464   6.3143
     7.7771   7.8021   8.7292  10.1366  10.7293  11.6047  12.2118  13.2400
    13.3409  13.6432  14.4294  14.5769  15.6443  17.3408  17.3474  17.6793
    18.4814  18.9159  21.4871  21.6062  22.7407  23.9493  24.4626  24.5757
    25.1404  25.1770  27.9812

     occupation numbers 
     1.0000   1.0000   1.0000   1.0000   1.0000   1.0000   1.0000   1.0000
     1.0000   1.0000   1.0000   1.0000   1.0000   1.0000   1.0000   1.0000
     1.0000   1.0000   1.0000   1.0000   1.0000   1.0000   1.0000   1.0000
     1.0000   1.0000   1.0000   1.0000   1.0000   1.0000   1.0000   1.0000
     1.0000   1.0000   0.5223   0.2596   0.0000   0.0000   0.0000   0.0000
     0.0000   0.0000   0.0000

          k = 0.5000-0.1130-0.2876 (  2161 PWs)   bands (ev):

   -66.5222 -66.5221 -33.0355 -33.0321 -32.8466 -32.8451 -32.5758 -32.5746
    -5.0943  -4.5873  -2.5305  -0.8671   2.7129   4.1717   6.4393   6.4773
     7.3231   7.8587   8.6691   9.9106  11.3160  11.6998  12.0334  12.0919
    13.3967  13.8352  13.9124  15.5093  15.9517  16.8901  17.3828  18.0876
    18.8574  18.9739  21.4668  21.6312  22.6873  23.7339  24.3123  24.4321
    24.9130  25.1447  27.3248

     occupation numbers 
     1.0000   1.0000   1.0000   1.0000   1.0000   1.0000   1.0000   1.0000
     1.0000   1.0000   1.0000   1.0000   1.0000   1.0000   1.0000   1.0000
     1.0000   1.0000   1.0000   1.0000   1.0000   1.0000   1.0000   1.0000
     1.0000   1.0000   1.0000   1.0000   1.0000   1.0000   1.0000   1.0000
     1.0000   1.0000   0.5731   0.2166   0.0000   0.0000   0.0000   0.0000
     0.0000   0.0000   0.0000

          k = 0.5000-0.2138-0.1276 (  2151 PWs)   bands (ev):

   -66.5219 -66.5219 -33.0357 -33.0305 -32.8492 -32.8477 -32.5775 -32.5753
    -5.2546  -3.7671  -3.5007  -0.0145   1.9226   4.5428   5.6723   6.1384
     7.9110   8.2676   8.2762   9.9379  11.2864  11.4447  12.0972  12.7537
    12.9139  13.9119  14.7079  15.2812  15.7728  16.3223  18.0027  18.2477
    18.5977  19.0360  21.5515  21.6799  22.6113  23.3990  23.9237  25.3724
    25.4078  25.6987  27.4648

     occupation numbers 
     1.0000   1.0000   1.0000   1.0000   1.0000   1.0000   1.0000   1.0000
     1.0000   1.0000   1.0000   1.0000   1.0000   1.0000   1.0000   1.0000
     1.0000   1.0000   1.0000   1.0000   1.0000   1.0000   1.0000   1.0000
     1.0000   1.0000   1.0000   1.0000   1.0000   1.0000   1.0000   1.0000
     1.0000   1.0000   0.3703   0.1467   0.0000   0.0000   0.0000   0.0000
     0.0000   0.0000   0.0000

          k = 0.5000-0.2138 0.0020 (  2169 PWs)   bands (ev):

   -66.5221 -66.5220 -33.0342 -33.0322 -32.8486 -32.8486 -32.5771 -32.5762
    -5.0820  -4.5594  -2.2593  -1.1264   2.9578   3.6869   6.0806   6.3440
     7.5351   7.6798   8.8856  10.2693  10.6041  11.9086  12.1914  13.1273
    13.2884  13.7050  14.3373  14.9658  15.3173  16.5475  17.2833  18.3089
    19.2615  19.2951  21.4895  21.6695  22.1114  23.8099  24.4517  24.9343
    25.5187  25.8788  27.9260

     occupation numbers 
     1.0000   1.0000   1.0000   1.0000   1.0000   1.0000   1.0000   1.0000
     1.0000   1.0000   1.0000   1.0000   1.0000   1.0000   1.0000   1.0000
     1.0000   1.0000   1.0000   1.0000   1.0000   1.0000   1.0000   1.0000
     1.0000   1.0000   1.0000   1.0000   1.0000   1.0000   1.0000   1.0000
     1.0000   1.0000   0.5165   0.1600   0.0005   0.0000   0.0000   0.0000
     0.0000   0.0000   0.0000

          k = 0.5000-0.2138-0.2571 (  2160 PWs)   bands (ev):

   -66.5220 -66.5219 -33.0348 -33.0315 -32.8491 -32.8478 -32.5772 -32.5760
    -5.0647  -4.5068  -2.5645  -0.8546   2.6127   4.0898   6.5142   6.5235
     7.1717   7.5209   8.7087   9.9530  11.5001  11.5108  11.9507  11.9900
    13.4499  13.6481  14.5194  15.5108  15.7265  16.6586  17.6110  18.4517
    18.9316  19.3843  21.4577  21.7214  22.4504  23.4287  24.3413  24.6976
    25.2839  25.6738  27.4155

     occupation numbers 
     1.0000   1.0000   1.0000   1.0000   1.0000   1.0000   1.0000   1.0000
     1.0000   1.0000   1.0000   1.0000   1.0000   1.0000   1.0000   1.0000
     1.0000   1.0000   1.0000   1.0000   1.0000   1.0000   1.0000   1.0000
     1.0000   1.0000   1.0000   1.0000   1.0000   1.0000   1.0000   1.0000
     1.0000   1.0000   0.5959   0.1012   0.0000   0.0000   0.0000   0.0000
     0.0000   0.0000   0.0000

          k = 0.5000-0.3146-0.0971 (  2146 PWs)   bands (ev):

   -66.5218 -66.5217 -33.0349 -33.0302 -32.8511 -32.8499 -32.5786 -32.5765
    -5.2482  -3.6387  -3.5271   0.0168   1.7753   4.5234   5.2706   6.3308
     7.5614   7.8945   8.6718  10.3697  11.1851  12.1898  12.4166  12.7327
    13.0401  13.1368  14.5214  15.0367  15.5801  15.8993  17.7900  18.3424
    19.3692  19.7102  21.6109  21.7333  21.8932  23.6739  24.0574  25.7632
    25.9822  26.3609  27.4123

     occupation numbers 
     1.0000   1.0000   1.0000   1.0000   1.0000   1.0000   1.0000   1.0000
     1.0000   1.0000   1.0000   1.0000   1.0000   1.0000   1.0000   1.0000
     1.0000   1.0000   1.0000   1.0000   1.0000   1.0000   1.0000   1.0000
     1.0000   1.0000   1.0000   1.0000   1.0000   1.0000   1.0000   1.0000
     1.0000   1.0000   0.2513   0.0904   0.0149   0.0000   0.0000   0.0000
     0.0000   0.0000   0.0000

          k = 0.5000-0.3146 0.0325 (  2149 PWs)   bands (ev):

   -66.5218 -66.5217 -33.0335 -33.0316 -32.8507 -32.8503 -32.5780 -32.5771
    -5.0535  -4.4922  -2.3335  -1.0723   2.7902   3.7237   6.0495   6.5905
     7.2919   7.3481   9.0793  10.0273  11.0642  11.5580  12.6223  12.8303
    12.9003  13.7772  14.5133  15.0821  15.3548  15.8825  17.9874  18.4148
    19.3406  19.8366  21.6375  21.6855  22.0897  23.5882  24.3511  25.4538
    25.7460  25.9699  28.0323

     occupation numbers 
     1.0000   1.0000   1.0000   1.0000   1.0000   1.0000   1.0000   1.0000
     1.0000   1.0000   1.0000   1.0000   1.0000   1.0000   1.0000   1.0000
     1.0000   1.0000   1.0000   1.0000   1.0000   1.0000   1.0000   1.0000
     1.0000   1.0000   1.0000   1.0000   1.0000   1.0000   1.0000   1.0000
     1.0000   1.0000   0.2065   0.1398   0.0008   0.0000   0.0000   0.0000
     0.0000   0.0000   0.0000

          k = 0.5000-0.3146-0.2266 (  2147 PWs)   bands (ev):

   -66.5217 -66.5216 -33.0339 -33.0312 -32.8508 -32.8501 -32.5782 -32.5770
    -5.0465  -4.4651  -2.4773  -0.9479   2.6413   3.8891   6.3264   6.5636
     7.2439   7.2949   8.8179   9.9074  11.6622  11.6906  11.9332  12.3065
    13.2277  13.3331  15.0718  15.3448  15.4746  15.8654  18.3768  18.5710
    19.2216  19.2242  21.6130  21.7326  22.8421  23.0445  24.3527  25.2238
    25.5995  25.9358  27.7207

     occupation numbers 
     1.0000   1.0000   1.0000   1.0000   1.0000   1.0000   1.0000   1.0000
     1.0000   1.0000   1.0000   1.0000   1.0000   1.0000   1.0000   1.0000
     1.0000   1.0000   1.0000   1.0000   1.0000   1.0000   1.0000   1.0000
     1.0000   1.0000   1.0000   1.0000   1.0000   1.0000   1.0000   1.0000
     1.0000   1.0000   0.2476   0.0910   0.0000   0.0000   0.0000   0.0000
     0.0000   0.0000   0.0000

     the Fermi energy is    21.5380 ev

!    total energy              =    -818.99887598 Ry
     estimated scf accuracy    <          2.3E-10 Ry
     smearing contrib. (-TS)   =      -0.00192497 Ry
     internal energy E=F+TS    =    -818.99695102 Ry

     The total energy is F=E-TS. E is the sum of the following terms:
     one-electron contribution =    -205.30821048 Ry
     hartree contribution      =     165.84617017 Ry
     xc contribution           =    -115.58165467 Ry
     ewald contribution        =    -511.61543998 Ry
     one-center paw contrib.   =    -152.33781606 Ry
      -> PAW hartree energy AE =     470.57528660 Ry
      -> PAW hartree energy PS =    -468.82250498 Ry
      -> PAW xc energy AE      =    -225.69071516 Ry
      -> PAW xc energy PS      =      71.60011748 Ry
      -> total E_H with PAW    =     167.59895179 Ry
      -> total E_XC with PAW   =    -269.67225235 Ry

     convergence has been achieved in  15 iterations

     Forces acting on atoms (cartesian axes, Ry/au):

     atom    1 type  1   force =     0.00000000    0.00000000    0.00000000
     atom    2 type  2   force =    -0.01117064    0.00926529    0.05578912
     atom    3 type  2   force =     0.01117242   -0.00926432   -0.05579109
     atom    4 type  2   force =    -0.01283626   -0.02646399   -0.02036263
     atom    5 type  2   force =     0.01283586    0.02646363    0.02036132
     atom    6 type  1   force =     0.00000000    0.00000000    0.00000000
     atom    7 type  2   force =    -0.01117242    0.00926432    0.05579109
     atom    8 type  2   force =     0.01117064   -0.00926529   -0.05578912
     atom    9 type  2   force =    -0.01283586   -0.02646363   -0.02036132
     atom   10 type  2   force =     0.01283626    0.02646399    0.02036263
     The non-local contrib.  to forces
     atom    1 type  1   force =     0.00000000    0.00000000    0.00000000
     atom    2 type  2   force =     0.58720584   -0.53236666    1.38316239
     atom    3 type  2   force =    -0.58720402    0.53236804   -1.38316291
     atom    4 type  2   force =     0.24086633   -1.25832299   -0.44590613
     atom    5 type  2   force =    -0.24086396    1.25832277    0.44590061
     atom    6 type  1   force =     0.00000000    0.00000000    0.00000000
     atom    7 type  2   force =     0.58720402   -0.53236804    1.38316291
     atom    8 type  2   force =    -0.58720584    0.53236666   -1.38316239
     atom    9 type  2   force =     0.24086396   -1.25832277   -0.44590061
     atom   10 type  2   force =    -0.24086633    1.25832299    0.44590613
     The ionic contribution  to forces
     atom    1 type  1   force =    -0.00000005   -0.00000007   -0.00000014
     atom    2 type  2   force =    -1.53675687    0.10355706    0.95299896
     atom    3 type  2   force =     1.53675689   -0.10355709   -0.95299900
     atom    4 type  2   force =    -0.63576696   -2.23385112   -2.12190497
     atom    5 type  2   force =     0.63576696    2.23385107    2.12190490
     atom    6 type  1   force =    -0.00000000    0.00000013   -0.00000000
     atom    7 type  2   force =    -1.53675685    0.10355710    0.95299920
     atom    8 type  2   force =     1.53675691   -0.10355717   -0.95299892
     atom    9 type  2   force =    -0.63576694   -2.23385099   -2.12190497
     atom   10 type  2   force =     0.63576692    2.23385107    2.12190494
     The local contribution  to forces
     atom    1 type  1   force =     0.00000000   -0.00000000    0.00000000
     atom    2 type  2   force =     0.94273757    0.43440680   -2.26883346
     atom    3 type  2   force =    -0.94273829   -0.43440355    2.26880931
     atom    4 type  2   force =     0.38388695    3.45491938    2.54389421
     atom    5 type  2   force =    -0.38388791   -3.45492512   -2.54390728
     atom    6 type  1   force =     0.00000001    0.00000169    0.00000002
     atom    7 type  2   force =     0.94273810    0.43440368   -2.26880920
     atom    8 type  2   force =    -0.94273773   -0.43440669    2.26883356
     atom    9 type  2   force =     0.38388800    3.45492521    2.54390737
     atom   10 type  2   force =    -0.38388700   -3.45491936   -2.54389398
     The core correction contribution to forces
     atom    1 type  1   force =    -0.00000000    0.00000000   -0.00000000
     atom    2 type  2   force =    -0.00436068    0.00367601   -0.01154847
     atom    3 type  2   force =     0.00436067   -0.00367602    0.01154839
     atom    4 type  2   force =    -0.00182219    0.01078691    0.00354558
     atom    5 type  2   force =     0.00182217   -0.01078695   -0.00354558
     atom    6 type  1   force =     0.00000000   -0.00000006   -0.00000000
     atom    7 type  2   force =    -0.00436066    0.00367602   -0.01154839
     atom    8 type  2   force =     0.00436068   -0.00367601    0.01154847
     atom    9 type  2   force =    -0.00182217    0.01078695    0.00354558
     atom   10 type  2   force =     0.00182219   -0.01078691   -0.00354558
     The Hubbard contrib.    to forces
     atom    1 type  1   force =     0.00000000    0.00000000    0.00000000
     atom    2 type  2   force =     0.00000000    0.00000000    0.00000000
     atom    3 type  2   force =     0.00000000    0.00000000    0.00000000
     atom    4 type  2   force =     0.00000000    0.00000000    0.00000000
     atom    5 type  2   force =     0.00000000    0.00000000    0.00000000
     atom    6 type  1   force =     0.00000000    0.00000000    0.00000000
     atom    7 type  2   force =     0.00000000    0.00000000    0.00000000
     atom    8 type  2   force =     0.00000000    0.00000000    0.00000000
     atom    9 type  2   force =     0.00000000    0.00000000    0.00000000
     atom   10 type  2   force =     0.00000000    0.00000000    0.00000000
     The SCF correction term to forces
     atom    1 type  1   force =    -0.00000000   -0.00000000   -0.00000000
     atom    2 type  2   force =     0.00000344   -0.00000792    0.00000977
     atom    3 type  2   force =    -0.00000290    0.00000437    0.00001328
     atom    4 type  2   force =    -0.00000045    0.00000382    0.00000879
     atom    5 type  2   force =    -0.00000134    0.00000195    0.00000868
     atom    6 type  1   force =     0.00000000    0.00000000    0.00000000
     atom    7 type  2   force =     0.00000290   -0.00000437   -0.00001328
     atom    8 type  2   force =    -0.00000344    0.00000792   -0.00000977
     atom    9 type  2   force =     0.00000134   -0.00000195   -0.00000868
     atom   10 type  2   force =     0.00000045   -0.00000382   -0.00000879

     Total force =     0.135689     Total SCF correction =     0.000033


     Computing stress (Cartesian axis) and pressure

          total   stress  (Ry/bohr**3)                   (kbar)     P=     1675.04
   0.01165121   0.00024656   0.00027696         1713.95       36.27       40.74
   0.00024656   0.01183487  -0.00001067           36.27     1740.97       -1.57
   0.00027696  -0.00001067   0.01067406           40.74       -1.57     1570.21

     kinetic stress (kbar)  67203.06   1035.09    728.28
                             1035.09  65295.17   -509.93
                              728.28   -509.93  64198.45

     local   stress (kbar)  13267.21   8998.19   -756.44
                             8998.19  15542.43   3586.92
                             -756.44   3586.92  27965.80

     nonloc. stress (kbar) -21327.12    148.21   -122.75
                              148.21 -21955.68    302.55
                             -122.75    302.55 -22067.34

     hartree stress (kbar)  27086.37  -2260.42    550.57
                            -2260.42  23314.39  -1495.47
                              550.57  -1495.47  17245.33

     exc-cor stress (kbar)  -5702.40    -23.53     -8.29
                              -23.53  -5657.74      1.80
                               -8.29      1.80  -5640.47

     corecor stress (kbar)  -8365.39      0.19      1.21
                                0.19  -8350.64     -4.46
                                1.21     -4.46  -8346.26

     ewald   stress (kbar) -70447.77  -7861.46   -351.84
                            -7861.46 -66446.97  -1882.99
                             -351.84  -1882.99 -71785.30

     hubbard stress (kbar)      0.00      0.00      0.00
                                0.00      0.00      0.00
                                0.00      0.00      0.00

     DFT-D   stress (kbar)      0.00      0.00      0.00
                                0.00      0.00      0.00
                                0.00      0.00      0.00

     XDM     stress (kbar)      0.00      0.00      0.00
                                0.00      0.00      0.00
                                0.00      0.00      0.00

     dft-nl  stress (kbar)      0.00      0.00      0.00
                                0.00      0.00      0.00
                                0.00      0.00      0.00

     TS-vdW  stress (kbar)      0.00      0.00      0.00
                                0.00      0.00      0.00
                                0.00      0.00      0.00



     Writing output data file ./out/aiida.save/

     init_run     :     15.88s CPU      4.77s WALL (       1 calls)
     electrons    :    428.33s CPU    108.64s WALL (       1 calls)
     forces       :      5.30s CPU      1.35s WALL (       1 calls)
     stress       :     22.84s CPU      6.06s WALL (       1 calls)

     Called by init_run:
     wfcinit      :     11.95s CPU      3.02s WALL (       1 calls)
     wfcinit:atom :      0.33s CPU      0.07s WALL (     106 calls)
     wfcinit:wfcr :      8.81s CPU      2.24s WALL (     106 calls)
     potinit      :      1.54s CPU      0.40s WALL (       1 calls)
     hinit0       :      1.67s CPU      1.11s WALL (       1 calls)

     Called by electrons:
     c_bands      :    351.34s CPU     88.64s WALL (      15 calls)
     sum_band     :     57.26s CPU     14.79s WALL (      15 calls)
     v_of_rho     :      1.86s CPU      0.47s WALL (      16 calls)
     v_h          :      0.10s CPU      0.03s WALL (      16 calls)
     v_xc         :      1.98s CPU      0.50s WALL (      18 calls)
     newd         :      9.43s CPU      2.63s WALL (      16 calls)
     PAW_pot      :      9.06s CPU      2.28s WALL (      16 calls)
     mix_rho      :      0.28s CPU      0.07s WALL (      15 calls)

     Called by c_bands:
     init_us_2    :      8.05s CPU      2.05s WALL (    3498 calls)
     cegterg      :    331.01s CPU     83.47s WALL (    1590 calls)

     Called by sum_band:
     sum_band:wei :      0.31s CPU      0.07s WALL (      15 calls)
     sum_band:loo :     49.88s CPU     12.58s WALL (      15 calls)
     sum_band:buf :      1.26s CPU      0.34s WALL (    1590 calls)
     sum_band:ini :      3.27s CPU      0.84s WALL (    1590 calls)
     sum_band:cal :      5.15s CPU      1.24s WALL (    1590 calls)
     sum_band:bec :      0.23s CPU      0.07s WALL (    1590 calls)
     addusdens    :      6.81s CPU      2.07s WALL (      15 calls)
     addusd:skk   :      0.10s CPU      0.03s WALL (      30 calls)
     addusd:dgemm :      0.41s CPU      0.43s WALL (      30 calls)
     addusd:qvan2 :      5.40s CPU      1.35s WALL (      30 calls)

     Called by *egterg:
     cdiaghg      :     50.44s CPU     13.06s WALL (    5332 calls)
     cegterg:over :     17.39s CPU      4.26s WALL (    3742 calls)
     cegterg:upda :     12.09s CPU      3.01s WALL (    3742 calls)
     cegterg:last :      5.37s CPU      1.25s WALL (    1592 calls)
     h_psi        :    220.85s CPU     56.85s WALL (    5438 calls)
     s_psi        :     11.69s CPU      3.10s WALL (    5438 calls)
     g_psi        :      1.34s CPU      0.33s WALL (    3742 calls)

     Called by h_psi:
     h_psi:calbec :     19.76s CPU      4.43s WALL (    5438 calls)
     vloc_psi     :    186.39s CPU     48.21s WALL (    5438 calls)
     add_vuspsi   :     12.65s CPU      3.58s WALL (    5438 calls)

     General routines
     calbec       :     26.38s CPU      6.05s WALL (    7558 calls)
     fft          :      0.44s CPU      0.11s WALL (     231 calls)
     ffts         :      0.01s CPU      0.00s WALL (      31 calls)
     fftw         :    186.21s CPU     48.00s WALL (  398532 calls)
     interpolate  :      0.05s CPU      0.02s WALL (      16 calls)


     PAW routines
     PAW_pot      :      9.06s CPU      2.28s WALL (      16 calls)
     PAW_symme    :      0.00s CPU      0.00s WALL (      31 calls)

     PWSCF        :   7m53.65s CPU   2m 1.75s WALL


   This run was terminated on:  17:16:22  23Jun2020            

=------------------------------------------------------------------------------=
   JOB DONE.
=------------------------------------------------------------------------------=
