
     Program PWSCF v.6.5 starts on 26Jul2020 at 21:41:13 

     This program is part of the open-source Quantum ESPRESSO suite
     for quantum simulation of materials; please cite
         "P. Giannozzi et al., J. Phys.:Condens. Matter 21 395502 (2009);
         "P. Giannozzi et al., J. Phys.:Condens. Matter 29 465901 (2017);
          URL http://www.quantum-espresso.org", 
     in publications or presentations arising from this work. More details at
     http://www.quantum-espresso.org/quote

     Serial multi-threaded version, running on    2 processor cores
     Fft bands division:     nmany     =       1
     Reading input from Si.bnd
     Message from routine read_cards :
     DEPRECATED: no units specified in ATOMIC_POSITIONS card
     Message from routine read_cards :
     ATOMIC_POSITIONS: units set to alat

     Current dimensions of program PWSCF are:
     Max number of different atomic species (ntypx) = 10
     Max number of k-points (npk) =  40000
     Max angular momentum in pseudopotentials (lmaxx) =  3

     Atomic positions and unit cell read from directory:
     ../tmp/si.save/


     G-vector sticks info
     --------------------
     sticks:   dense  smooth     PW     G-vecs:    dense   smooth      PW
     Sum        1075     733    211                23589    12939    2109



     bravais-lattice index     =            2
     lattice parameter (alat)  =      10.2740  a.u.
     unit-cell volume          =     271.1182 (a.u.)^3
     number of atoms/cell      =            2
     number of atomic types    =            1
     number of electrons       =         8.00
     number of Kohn-Sham states=            8
     kinetic-energy cutoff     =      50.0000  Ry
     charge density cutoff     =     300.0000  Ry
     Exchange-correlation= SLA  PW   PBE  PBE
                           (   1   4   3   4   0   0   0)

     celldm(1)=  10.274000  celldm(2)=   0.000000  celldm(3)=   0.000000
     celldm(4)=   0.000000  celldm(5)=   0.000000  celldm(6)=   0.000000

     crystal axes: (cart. coord. in units of alat)
               a(1) = (  -0.500000   0.000000   0.500000 )  
               a(2) = (   0.000000   0.500000   0.500000 )  
               a(3) = (  -0.500000   0.500000   0.000000 )  

     reciprocal axes: (cart. coord. in units 2 pi/alat)
               b(1) = ( -1.000000 -1.000000  1.000000 )  
               b(2) = (  1.000000  1.000000  1.000000 )  
               b(3) = ( -1.000000  1.000000 -1.000000 )  


     PseudoPot. # 1 for Si read from file:
     ../../ppt/si_pbe_v1.uspp.F.UPF
     MD5 check sum: a056efeee980c13900f22a371efd63c1
     Pseudo is Ultrasoft + core correction, Zval =  4.0
     Generated by new atomic code, or converted to UPF format
     Using radial grid of  899 points,  6 beta functions with: 
                l(1) =   0
                l(2) =   0
                l(3) =   1
                l(4) =   1
                l(5) =   2
                l(6) =   2
     Q(r) pseudized with  8 coefficients,  rinner =    0.900   0.900   0.900
                                                       0.900   0.900

     atomic species   valence    mass     pseudopotential
        Si             4.00    28.00000     Si( 1.00)

     48 Sym. Ops., with inversion, found (24 have fractional translation)



   Cartesian axes

     site n.     atom                  positions (alat units)
         1           Si  tau(   1) = (   0.0000000   0.0000000   0.0000000  )
         2           Si  tau(   2) = (   0.2500000   0.2500000   0.2500000  )

     number of k points=    51  Marzari-Vanderbilt smearing, width (Ry)=  0.0200
                       cart. coord. in units 2pi/alat
        k(    1) = (   0.0000000   1.0000000   0.5000000), wk =   0.0392157
        k(    2) = (   0.0000000   0.9000000   0.4500000), wk =   0.0392157
        k(    3) = (  -0.0000000   0.8000000   0.4000000), wk =   0.0392157
        k(    4) = (  -0.0000000   0.7000000   0.3500000), wk =   0.0392157
        k(    5) = (  -0.0000000   0.6000000   0.3000000), wk =   0.0392157
        k(    6) = (   0.0000000   0.5000000   0.2500000), wk =   0.0392157
        k(    7) = (   0.0000000   0.4000000   0.2000000), wk =   0.0392157
        k(    8) = (   0.0000000   0.3000000   0.1500000), wk =   0.0392157
        k(    9) = (  -0.0000000   0.2000000   0.1000000), wk =   0.0392157
        k(   10) = (  -0.0000000   0.1000000   0.0500000), wk =   0.0392157
        k(   11) = (   0.0000000   0.0000000   0.0000000), wk =   0.0392157
        k(   12) = (   0.0000000   0.1000000   0.0000000), wk =   0.0392157
        k(   13) = (   0.0000000   0.2000000   0.0000000), wk =   0.0392157
        k(   14) = (   0.0000000   0.3000000   0.0000000), wk =   0.0392157
        k(   15) = (   0.0000000   0.4000000   0.0000000), wk =   0.0392157
        k(   16) = (   0.0000000   0.5000000   0.0000000), wk =   0.0392157
        k(   17) = (   0.0000000   0.6000000   0.0000000), wk =   0.0392157
        k(   18) = (   0.0000000   0.7000000   0.0000000), wk =   0.0392157
        k(   19) = (   0.0000000   0.8000000   0.0000000), wk =   0.0392157
        k(   20) = (   0.0000000   0.9000000   0.0000000), wk =   0.0392157
        k(   21) = (   0.0000000   1.0000000   0.0000000), wk =   0.0392157
        k(   22) = (   0.0000000   1.0000000   0.0500000), wk =   0.0392157
        k(   23) = (   0.0000000   1.0000000   0.1000000), wk =   0.0392157
        k(   24) = (  -0.0000000   1.0000000   0.1500000), wk =   0.0392157
        k(   25) = (   0.0000000   1.0000000   0.2000000), wk =   0.0392157
        k(   26) = (   0.0000000   1.0000000   0.2500000), wk =   0.0392157
        k(   27) = (   0.0000000   1.0000000   0.3000000), wk =   0.0392157
        k(   28) = (   0.0000000   1.0000000   0.3500000), wk =   0.0392157
        k(   29) = (  -0.0000000   1.0000000   0.4000000), wk =   0.0392157
        k(   30) = (   0.0000000   1.0000000   0.4500000), wk =   0.0392157
        k(   31) = (   0.0000000   1.0000000   0.5000000), wk =   0.0392157
        k(   32) = (  -0.0500000   0.9500000   0.5000000), wk =   0.0392157
        k(   33) = (  -0.1000000   0.9000000   0.5000000), wk =   0.0392157
        k(   34) = (  -0.1500000   0.8500000   0.5000000), wk =   0.0392157
        k(   35) = (  -0.2000000   0.8000000   0.5000000), wk =   0.0392157
        k(   36) = (  -0.2500000   0.7500000   0.5000000), wk =   0.0392157
        k(   37) = (  -0.3000000   0.7000000   0.5000000), wk =   0.0392157
        k(   38) = (  -0.3500000   0.6500000   0.5000000), wk =   0.0392157
        k(   39) = (  -0.4000000   0.6000000   0.5000000), wk =   0.0392157
        k(   40) = (  -0.4500000   0.5500000   0.5000000), wk =   0.0392157
        k(   41) = (  -0.5000000   0.5000000   0.5000000), wk =   0.0392157
        k(   42) = (  -0.4500000   0.4500000   0.4500000), wk =   0.0392157
        k(   43) = (  -0.4000000   0.4000000   0.4000000), wk =   0.0392157
        k(   44) = (  -0.3500000   0.3500000   0.3500000), wk =   0.0392157
        k(   45) = (  -0.3000000   0.3000000   0.3000000), wk =   0.0392157
        k(   46) = (  -0.2500000   0.2500000   0.2500000), wk =   0.0392157
        k(   47) = (  -0.2000000   0.2000000   0.2000000), wk =   0.0392157
        k(   48) = (  -0.1500000   0.1500000   0.1500000), wk =   0.0392157
        k(   49) = (  -0.1000000   0.1000000   0.1000000), wk =   0.0392157
        k(   50) = (  -0.0500000   0.0500000   0.0500000), wk =   0.0392157
        k(   51) = (   0.0000000   0.0000000   0.0000000), wk =   0.0392157

     Dense  grid:    23589 G-vectors     FFT dimensions: (  48,  48,  48)

     Smooth grid:    12939 G-vectors     FFT dimensions: (  36,  36,  36)

     Estimated max dynamical RAM per process >      80.50 MB

     The potential is recalculated from file :
     ../tmp/si.save/charge-density

     Starting wfcs are    8 randomized atomic wfcs

     Band Structure Calculation
     Davidson diagonalization with overlap
     c_bands:  1 eigenvalues not converged

     ethr =  1.25E-11,  avg # of iterations = 35.2

     total cpu time spent up to now is       11.5 secs

     End of band structure calculation

          k = 0.0000 1.0000 0.5000 (  1628 PWs)   bands (ev):

    -1.4863  -1.4863   2.3215   2.3215  10.4326  10.4326  11.1508  11.1508

          k = 0.0000 0.9000 0.4500 (  1624 PWs)   bands (ev):

    -2.0144  -0.9846   2.1240   2.7112  10.0722  10.1332  10.8179  12.3604

          k =-0.0000 0.8000 0.4000 (  1622 PWs)   bands (ev):

    -2.6387  -0.3971   2.1944   3.1776   9.5550   9.9357  10.5838  13.9348

          k =-0.0000 0.7000 0.3500 (  1625 PWs)   bands (ev):

    -3.2865   0.2756   2.4728   3.6940   9.1308   9.8685  10.4263  13.5484

          k =-0.0000 0.6000 0.3000 (  1617 PWs)   bands (ev):

    -3.9027   1.0323   2.9063   4.2255   8.8143   9.9515  10.3171  12.5627

          k = 0.0000 0.5000 0.2500 (  1610 PWs)   bands (ev):

    -4.4540   1.8706   3.4552   4.7337   8.6077  10.0493  10.3594  11.6512

          k = 0.0000 0.4000 0.2000 (  1613 PWs)   bands (ev):

    -4.9210   2.7848   4.0848   5.1879   8.5084   9.8770  10.7651  10.8183

          k = 0.0000 0.3000 0.1500 (  1613 PWs)   bands (ev):

    -5.2924   3.7619   4.7548   5.5713   8.5072   9.5889  10.0697  11.1514

          k =-0.0000 0.2000 0.1000 (  1610 PWs)   bands (ev):

    -5.5615   4.7680   5.4063   5.8752   8.5801   9.2602   9.4212  10.7203

          k =-0.0000 0.1000 0.0500 (  1632 PWs)   bands (ev):

    -5.7244   5.6946   5.9350   6.0812   8.6763   8.9259   8.9379   9.8538

          k = 0.0000 0.0000 0.0000 (  1639 PWs)   bands (ev):

    -5.7789   6.1564   6.1564   6.1564   8.7220   8.7220   8.7220   9.4786

          k = 0.0000 0.1000 0.0000 (  1635 PWs)   bands (ev):

    -5.7353   5.8749   5.9817   5.9817   8.6171   8.9505   8.9505   9.7504

          k = 0.0000 0.2000 0.0000 (  1619 PWs)   bands (ev):

    -5.6046   5.2150   5.5827   5.5827   8.3449   9.5094   9.5094  10.3105

          k = 0.0000 0.3000 0.0000 (  1607 PWs)   bands (ev):

    -5.3877   4.4016   5.1214   5.1214   7.9905  10.2343  10.2343  10.5506

          k = 0.0000 0.4000 0.0000 (  1623 PWs)   bands (ev):

    -5.0857   3.5308   4.6745   4.6745   7.6253  10.0456  11.0446  11.0446

          k = 0.0000 0.5000 0.0000 (  1612 PWs)   bands (ev):

    -4.7005   2.6388   4.2740   4.2740   7.2953   9.2974  11.9049  11.9049

          k = 0.0000 0.6000 0.0000 (  1620 PWs)   bands (ev):

    -4.2346   1.7425   3.9353   3.9353   7.0284   8.5823  12.7980  12.7980

          k = 0.0000 0.7000 0.0000 (  1632 PWs)   bands (ev):

    -3.6915   0.8542   3.6663   3.6663   6.8423   7.9704  13.7156  13.7156

          k = 0.0000 0.8000 0.0000 (  1628 PWs)   bands (ev):

    -3.0755  -0.0147   3.4716   3.4716   6.7496   7.4814  14.6516  14.6516

          k = 0.0000 0.9000 0.0000 (  1624 PWs)   bands (ev):

    -2.3921  -0.8525   3.3538   3.3538   6.7595   7.1190  15.5847  15.5847

          k = 0.0000 1.0000 0.0000 (  1604 PWs)   bands (ev):

    -1.6483  -1.6483   3.3145   3.3145   6.8803   6.8803  16.2356  16.2356

          k = 0.0000 1.0000 0.0500 (  1624 PWs)   bands (ev):

    -1.6447  -1.6447   3.2817   3.2817   6.9406   6.9406  16.1330  16.1330

          k = 0.0000 1.0000 0.1000 (  1624 PWs)   bands (ev):

    -1.6341  -1.6341   3.1909   3.1909   7.1141   7.1141  15.7882  15.7882

          k =-0.0000 1.0000 0.1500 (  1624 PWs)   bands (ev):

    -1.6173  -1.6173   3.0597   3.0597   7.3836   7.3836  15.2525  15.2525

          k = 0.0000 1.0000 0.2000 (  1630 PWs)   bands (ev):

    -1.5957  -1.5957   2.9084   2.9084   7.7297   7.7297  14.6351  14.6351

          k = 0.0000 1.0000 0.2500 (  1628 PWs)   bands (ev):

    -1.5712  -1.5712   2.7545   2.7545   8.1357   8.1357  13.9902  13.9902

          k = 0.0000 1.0000 0.3000 (  1622 PWs)   bands (ev):

    -1.5458  -1.5458   2.6117   2.6117   8.5888   8.5888  13.3409  13.3409

          k = 0.0000 1.0000 0.3500 (  1622 PWs)   bands (ev):

    -1.5223  -1.5223   2.4905   2.4905   9.0783   9.0783  12.6993  12.6993

          k =-0.0000 1.0000 0.4000 (  1626 PWs)   bands (ev):

    -1.5032  -1.5032   2.3984   2.3984   9.5929   9.5929  12.0766  12.0766

          k = 0.0000 1.0000 0.4500 (  1618 PWs)   bands (ev):

    -1.4906  -1.4906   2.3410   2.3410  10.1066  10.1066  11.4983  11.4983

          k = 0.0000 1.0000 0.5000 (  1628 PWs)   bands (ev):

    -1.4863  -1.4863   2.3215   2.3215  10.4326  10.4326  11.1508  11.1508

          k =-0.0500 0.9500 0.5000 (  1622 PWs)   bands (ev):

    -1.8125  -1.1729   2.1224   2.5991  10.1325  10.4455  11.1525  11.5260

          k =-0.1000 0.9000 0.5000 (  1618 PWs)   bands (ev):

    -2.1299  -0.9046   2.0375   2.9276   9.8346  10.1444  11.5560  11.9899

          k =-0.1500 0.8500 0.5000 (  1618 PWs)   bands (ev):

    -2.4253  -0.7167   2.1037   3.2851   9.5881   9.8174  12.0703  12.4929

          k =-0.2000 0.8000 0.5000 (  1614 PWs)   bands (ev):

    -2.6904  -0.6260   2.3374   3.6516   9.4066   9.5091  12.6448  13.0174

          k =-0.2500 0.7500 0.5000 (  1614 PWs)   bands (ev):

    -2.9202  -0.6158   2.7185   4.0064   9.2204   9.2977  12.0613  13.2715

          k =-0.3000 0.7000 0.5000 (  1614 PWs)   bands (ev):

    -3.1114  -0.6516   3.2052   4.3285   8.9365   9.2644  11.1718  13.9430

          k =-0.3500 0.6500 0.5000 (  1612 PWs)   bands (ev):

    -3.2618  -0.7033   3.7516   4.5975   8.6244   9.3006  10.4206  14.2721

          k =-0.4000 0.6000 0.5000 (  1618 PWs)   bands (ev):

    -3.3701  -0.7509   4.3027   4.7977   8.2482   9.3831   9.8841  14.1917

          k =-0.4500 0.5500 0.5000 (  1618 PWs)   bands (ev):

    -3.4355  -0.7833   4.7640   4.9198   7.8641   9.4683   9.5927  13.9808

          k =-0.5000 0.5000 0.5000 (  1622 PWs)   bands (ev):

    -3.4573  -0.7947   4.9607   4.9607   7.6843   9.5048   9.5048  13.8858

          k =-0.4500 0.4500 0.4500 (  1616 PWs)   bands (ev):

    -3.5906  -0.5997   4.9786   4.9786   7.7049   9.5250   9.5250  13.9169

          k =-0.4000 0.4000 0.4000 (  1616 PWs)   bands (ev):

    -3.9061  -0.0999   5.0323   5.0323   7.7664   9.5795   9.5795  13.9964

          k =-0.3500 0.3500 0.3500 (  1625 PWs)   bands (ev):

    -4.2815   0.5805   5.1213   5.1213   7.8676   9.6483   9.6483  14.0471

          k =-0.3000 0.3000 0.3000 (  1624 PWs)   bands (ev):

    -4.6500   1.3714   5.2445   5.2445   8.0058   9.6938   9.6938  13.7586

          k =-0.2500 0.2500 0.2500 (  1618 PWs)   bands (ev):

    -4.9819   2.2370   5.3990   5.3990   8.1756   9.6640   9.6640  13.0451

          k =-0.2000 0.2000 0.2000 (  1606 PWs)   bands (ev):

    -5.2632   3.1529   5.5790   5.5790   8.3673   9.5204   9.5204  12.1767

          k =-0.1500 0.1500 0.1500 (  1606 PWs)   bands (ev):

    -5.4867   4.0929   5.7727   5.7727   8.5623   9.2804   9.2804  11.2777

          k =-0.1000 0.1000 0.1000 (  1612 PWs)   bands (ev):

    -5.6484   5.0119   5.9588   5.9588   8.7245   9.0131   9.0131  10.4105

          k =-0.0500 0.0500 0.0500 (  1633 PWs)   bands (ev):

    -5.7462   5.7986   6.1013   6.1013   8.7792   8.8027   8.8027   9.7226

          k = 0.0000 0.0000 0.0000 (  1639 PWs)   bands (ev):

    -5.7789   6.1564   6.1564   6.1564   8.7220   8.7220   8.7220   9.4786

     Writing output data file ../tmp/si.save/

     init_run     :      0.46s CPU      0.34s WALL (       1 calls)
     electrons    :     21.88s CPU     10.99s WALL (       1 calls)

     Called by init_run:
     wfcinit      :      0.00s CPU      0.00s WALL (       1 calls)
     potinit      :      0.08s CPU      0.04s WALL (       1 calls)
     hinit0       :      0.22s CPU      0.19s WALL (       1 calls)

     Called by electrons:
     c_bands      :     21.88s CPU     10.99s WALL (       1 calls)
     v_of_rho     :      0.07s CPU      0.04s WALL (       1 calls)
     newd         :      0.15s CPU      0.08s WALL (       1 calls)

     Called by c_bands:
     init_us_2    :      0.03s CPU      0.02s WALL (      51 calls)
     cegterg      :     20.85s CPU     10.47s WALL (     118 calls)

     Called by *egterg:
     cdiaghg      :      0.25s CPU      0.14s WALL (    1845 calls)
     h_psi        :     19.64s CPU      9.82s WALL (    1963 calls)
     s_psi        :      0.34s CPU      0.18s WALL (    1963 calls)
     g_psi        :      0.13s CPU      0.06s WALL (    1794 calls)

     Called by h_psi:
     h_psi:calbec :      0.42s CPU      0.20s WALL (    1963 calls)
     vloc_psi     :     18.78s CPU      9.41s WALL (    1963 calls)
     add_vuspsi   :      0.40s CPU      0.18s WALL (    1963 calls)

     General routines
     calbec       :      0.42s CPU      0.20s WALL (    1963 calls)
     fft          :      0.03s CPU      0.01s WALL (      13 calls)
     ffts         :      0.00s CPU      0.00s WALL (       1 calls)
     fftw         :     17.52s CPU      8.72s WALL (   22602 calls)
     interpolate  :      0.00s CPU      0.00s WALL (       1 calls)
     davcio       :      0.01s CPU      0.01s WALL (     102 calls)


     PWSCF        :     22.58s CPU     11.56s WALL


   This run was terminated on:  21:41:25  26Jul2020            

=------------------------------------------------------------------------------=
   JOB DONE.
=------------------------------------------------------------------------------=
