
     Program PWSCF v.6.5 starts on 26Jul2020 at 21:40:20 

     This program is part of the open-source Quantum ESPRESSO suite
     for quantum simulation of materials; please cite
         "P. Giannozzi et al., J. Phys.:Condens. Matter 21 395502 (2009);
         "P. Giannozzi et al., J. Phys.:Condens. Matter 29 465901 (2017);
          URL http://www.quantum-espresso.org", 
     in publications or presentations arising from this work. More details at
     http://www.quantum-espresso.org/quote

     Serial multi-threaded version, running on    2 processor cores
     Fft bands division:     nmany     =       1
     Reading input from Si.scf
     Message from routine read_cards :
     DEPRECATED: no units specified in ATOMIC_POSITIONS card
     Message from routine read_cards :
     ATOMIC_POSITIONS: units set to alat

     Current dimensions of program PWSCF are:
     Max number of different atomic species (ntypx) = 10
     Max number of k-points (npk) =  40000
     Max angular momentum in pseudopotentials (lmaxx) =  3

     G-vector sticks info
     --------------------
     sticks:   dense  smooth     PW     G-vecs:    dense   smooth      PW
     Sum        1075     733    223                23589    12939    2229



     bravais-lattice index     =            2
     lattice parameter (alat)  =      10.2740  a.u.
     unit-cell volume          =     271.1182 (a.u.)^3
     number of atoms/cell      =            2
     number of atomic types    =            1
     number of electrons       =         8.00
     number of Kohn-Sham states=            8
     kinetic-energy cutoff     =      50.0000  Ry
     charge density cutoff     =     300.0000  Ry
     convergence threshold     =      1.0E-09
     mixing beta               =       0.7000
     number of iterations used =            8  plain     mixing
     Exchange-correlation= SLA  PW   PBE  PBE
                           (   1   4   3   4   0   0   0)

     celldm(1)=  10.274000  celldm(2)=   0.000000  celldm(3)=   0.000000
     celldm(4)=   0.000000  celldm(5)=   0.000000  celldm(6)=   0.000000

     crystal axes: (cart. coord. in units of alat)
               a(1) = (  -0.500000   0.000000   0.500000 )  
               a(2) = (   0.000000   0.500000   0.500000 )  
               a(3) = (  -0.500000   0.500000   0.000000 )  

     reciprocal axes: (cart. coord. in units 2 pi/alat)
               b(1) = ( -1.000000 -1.000000  1.000000 )  
               b(2) = (  1.000000  1.000000  1.000000 )  
               b(3) = ( -1.000000  1.000000 -1.000000 )  


     PseudoPot. # 1 for Si read from file:
     ../../ppt/si_pbe_v1.uspp.F.UPF
     MD5 check sum: a056efeee980c13900f22a371efd63c1
     Pseudo is Ultrasoft + core correction, Zval =  4.0
     Generated by new atomic code, or converted to UPF format
     Using radial grid of  899 points,  6 beta functions with: 
                l(1) =   0
                l(2) =   0
                l(3) =   1
                l(4) =   1
                l(5) =   2
                l(6) =   2
     Q(r) pseudized with  8 coefficients,  rinner =    0.900   0.900   0.900
                                                       0.900   0.900

     atomic species   valence    mass     pseudopotential
        Si             4.00    28.00000     Si( 1.00)

     48 Sym. Ops., with inversion, found (24 have fractional translation)



   Cartesian axes

     site n.     atom                  positions (alat units)
         1           Si  tau(   1) = (   0.0000000   0.0000000   0.0000000  )
         2           Si  tau(   2) = (   0.2500000   0.2500000   0.2500000  )

     number of k points=   145  Marzari-Vanderbilt smearing, width (Ry)=  0.0200

     Number of k-points >= 100: set verbosity='high' to print them.

     Dense  grid:    23589 G-vectors     FFT dimensions: (  48,  48,  48)

     Smooth grid:    12939 G-vectors     FFT dimensions: (  36,  36,  36)

     Estimated max dynamical RAM per process >     120.80 MB

     Initial potential from superposition of free atoms

     starting charge    7.99866, renormalised to    8.00000
     Starting wfcs are    8 randomized atomic wfcs

     total cpu time spent up to now is        1.6 secs

     Self-consistent Calculation

     iteration #  1     ecut=    50.00 Ry     beta= 0.70
     Davidson diagonalization with overlap
     ethr =  1.00E-02,  avg # of iterations =  4.2

     Threshold (ethr) on eigenvalues was too large:
     Diagonalizing with lowered threshold

     Davidson diagonalization with overlap
     ethr =  6.67E-04,  avg # of iterations =  1.3

     total cpu time spent up to now is        9.6 secs

     total energy              =     -19.19059113 Ry
     estimated scf accuracy    <       0.05572775 Ry

     iteration #  2     ecut=    50.00 Ry     beta= 0.70
     Davidson diagonalization with overlap
     ethr =  6.97E-04,  avg # of iterations =  1.0

     total cpu time spent up to now is       12.8 secs

     total energy              =     -19.19298560 Ry
     estimated scf accuracy    <       0.00213006 Ry

     iteration #  3     ecut=    50.00 Ry     beta= 0.70
     Davidson diagonalization with overlap
     ethr =  2.66E-05,  avg # of iterations =  3.8

     total cpu time spent up to now is       16.7 secs

     total energy              =     -19.19313199 Ry
     estimated scf accuracy    <       0.00004291 Ry

     iteration #  4     ecut=    50.00 Ry     beta= 0.70
     Davidson diagonalization with overlap
     ethr =  5.36E-07,  avg # of iterations =  4.8

     total cpu time spent up to now is       21.9 secs

     total energy              =     -19.19317212 Ry
     estimated scf accuracy    <       0.00000013 Ry

     iteration #  5     ecut=    50.00 Ry     beta= 0.70
     Davidson diagonalization with overlap
     ethr =  1.59E-09,  avg # of iterations =  3.9

     total cpu time spent up to now is       26.5 secs

     total energy              =     -19.19317266 Ry
     estimated scf accuracy    <          7.9E-09 Ry

     iteration #  6     ecut=    50.00 Ry     beta= 0.70
     Davidson diagonalization with overlap
     ethr =  9.90E-11,  avg # of iterations =  2.2

     total cpu time spent up to now is       30.3 secs

     End of self-consistent calculation

     Number of k-points >= 100: set verbosity='high' to print the bands.

     the Fermi energy is     6.1548 ev

!    total energy              =     -19.19317266 Ry
     estimated scf accuracy    <          1.4E-10 Ry
     smearing contrib. (-TS)   =       0.00030628 Ry
     internal energy E=F+TS    =     -19.19347895 Ry

     The total energy is F=E-TS. E is the sum of the following terms:
     one-electron contribution =       5.08288258 Ry
     hartree contribution      =       1.11861699 Ry
     xc contribution           =      -8.61694294 Ry
     ewald contribution        =     -16.77803557 Ry

     convergence has been achieved in   6 iterations


     Computing stress (Cartesian axis) and pressure

          total   stress  (Ry/bohr**3)                   (kbar)     P=       15.58
   0.00010591   0.00000000  -0.00000000           15.58        0.00       -0.00
  -0.00000000   0.00010591   0.00000000           -0.00       15.58        0.00
   0.00000000   0.00000000   0.00010591            0.00        0.00       15.58


     Writing output data file ../tmp/si.save/

     init_run     :      2.93s CPU      1.60s WALL (       1 calls)
     electrons    :     56.64s CPU     28.69s WALL (       1 calls)
     stress       :      3.40s CPU      1.76s WALL (       1 calls)

     Called by init_run:
     wfcinit      :      2.45s CPU      1.25s WALL (       1 calls)
     potinit      :      0.08s CPU      0.04s WALL (       1 calls)
     hinit0       :      0.21s CPU      0.19s WALL (       1 calls)

     Called by electrons:
     c_bands      :     46.46s CPU     23.36s WALL (       7 calls)
     sum_band     :      8.92s CPU      4.60s WALL (       7 calls)
     v_of_rho     :      0.42s CPU      0.23s WALL (       7 calls)
     newd         :      0.98s CPU      0.58s WALL (       7 calls)
     mix_rho      :      0.03s CPU      0.02s WALL (       7 calls)

     Called by c_bands:
     init_us_2    :      1.39s CPU      0.74s WALL (    2320 calls)
     cegterg      :     42.47s CPU     21.32s WALL (    1015 calls)

     Called by *egterg:
     cdiaghg      :      0.55s CPU      0.27s WALL (    3934 calls)
     h_psi        :     41.17s CPU     20.66s WALL (    4224 calls)
     s_psi        :      0.74s CPU      0.39s WALL (    4224 calls)
     g_psi        :      0.15s CPU      0.09s WALL (    3064 calls)

     Called by h_psi:
     h_psi:calbec :      0.85s CPU      0.43s WALL (    4224 calls)
     vloc_psi     :     39.41s CPU     19.78s WALL (    4224 calls)
     add_vuspsi   :      0.82s CPU      0.40s WALL (    4224 calls)

     General routines
     calbec       :      1.16s CPU      0.57s WALL (    5384 calls)
     fft          :      0.20s CPU      0.10s WALL (     104 calls)
     ffts         :      0.01s CPU      0.01s WALL (      14 calls)
     fftw         :     42.81s CPU     21.41s WALL (   55030 calls)
     interpolate  :      0.02s CPU      0.01s WALL (       7 calls)


     PWSCF        :   1m 3.08s CPU     32.15s WALL


   This run was terminated on:  21:40:52  26Jul2020            

=------------------------------------------------------------------------------=
   JOB DONE.
=------------------------------------------------------------------------------=
