
     Program PWSCF v.6.7MaX starts on 26Dec2020 at  0:15: 7 

     This program is part of the open-source Quantum ESPRESSO suite
     for quantum simulation of materials; please cite
         "P. Giannozzi et al., J. Phys.:Condens. Matter 21 395502 (2009);
         "P. Giannozzi et al., J. Phys.:Condens. Matter 29 465901 (2017);
          URL http://www.quantum-espresso.org", 
     in publications or presentations arising from this work. More details at
     http://www.quantum-espresso.org/quote

     Serial multi-threaded version, running on    1 processor cores
     Reading input from Si.bnd
     Message from routine read_cards :
     DEPRECATED: no units specified in ATOMIC_POSITIONS card
     Message from routine read_cards :
     ATOMIC_POSITIONS: units set to alat

     Current dimensions of program PWSCF are:
     Max number of different atomic species (ntypx) = 10
     Max number of k-points (npk) =  40000
     Max angular momentum in pseudopotentials (lmaxx) =  3

     Atomic positions and unit cell read from directory:
     ../tmp/sisc.save/

     Found symmetry operation: I + ( -0.5000 -0.5000  0.0000)
     This is a supercell, fractional translations are disabled

     G-vector sticks info
     --------------------
     sticks:   dense  smooth     PW     G-vecs:    dense   smooth      PW
     Sum        2537    1685    489                95193    51867    8121



     bravais-lattice index     =            1
     lattice parameter (alat)  =      10.2740  a.u.
     unit-cell volume          =    1084.4729 (a.u.)^3
     number of atoms/cell      =            8
     number of atomic types    =            1
     number of electrons       =        32.00
     number of Kohn-Sham states=           30
     kinetic-energy cutoff     =      50.0000  Ry
     charge density cutoff     =     300.0000  Ry
     Exchange-correlation= SLA  PW   PBE  PBE
                           (   1   4   3   4   0   0   0)

     celldm(1)=  10.274000  celldm(2)=   0.000000  celldm(3)=   0.000000
     celldm(4)=   0.000000  celldm(5)=   0.000000  celldm(6)=   0.000000

     crystal axes: (cart. coord. in units of alat)
               a(1) = (   1.000000   0.000000   0.000000 )  
               a(2) = (   0.000000   1.000000   0.000000 )  
               a(3) = (   0.000000   0.000000   1.000000 )  

     reciprocal axes: (cart. coord. in units 2 pi/alat)
               b(1) = (  1.000000  0.000000  0.000000 )  
               b(2) = (  0.000000  1.000000  0.000000 )  
               b(3) = (  0.000000  0.000000  1.000000 )  


     PseudoPot. # 1 for Si read from file:
     ../../ppt/si_pbe_v1.uspp.F.UPF
     MD5 check sum: a056efeee980c13900f22a371efd63c1
     Pseudo is Ultrasoft + core correction, Zval =  4.0
     Generated by new atomic code, or converted to UPF format
     Using radial grid of  899 points,  6 beta functions with: 
                l(1) =   0
                l(2) =   0
                l(3) =   1
                l(4) =   1
                l(5) =   2
                l(6) =   2
     Q(r) pseudized with  8 coefficients,  rinner =    0.900   0.900   0.900
                                                       0.900   0.900

     atomic species   valence    mass     pseudopotential
        Si             4.00    28.00000     Si( 1.00)

     24 Sym. Ops. (no inversion) found



   Cartesian axes

     site n.     atom                  positions (alat units)
         1           Si  tau(   1) = (   0.0000000   0.0000000   0.0000000  )
         2           Si  tau(   2) = (   0.5000000   0.5000000   0.0000000  )
         3           Si  tau(   3) = (   0.5000000   0.0000000   0.5000000  )
         4           Si  tau(   4) = (   0.0000000   0.5000000   0.5000000  )
         5           Si  tau(   5) = (   0.2500000   0.2500000   0.2500000  )
         6           Si  tau(   6) = (   0.7500000   0.7500000   0.2500000  )
         7           Si  tau(   7) = (   0.7500000   0.2500000   0.7500000  )
         8           Si  tau(   8) = (   0.2500000   0.7500000   0.7500000  )

     number of k points=    81  Marzari-Vanderbilt smearing, width (Ry)=  0.0200
                       cart. coord. in units 2pi/alat
        k(    1) = (   0.0000000   0.0000000   0.5000000), wk =   0.0006022
        k(    2) = (   0.0000000  -0.0625000   0.4687500), wk =   0.0012045
        k(    3) = (   0.0000000  -0.1250000   0.4375000), wk =   0.0018067
        k(    4) = (   0.0000000  -0.1875000   0.4062500), wk =   0.0024089
        k(    5) = (   0.0000000  -0.2500000   0.3750000), wk =   0.0030111
        k(    6) = (   0.0000000  -0.3125000   0.3437500), wk =   0.0036134
        k(    7) = (   0.0000000  -0.3750000   0.3125000), wk =   0.0042156
        k(    8) = (   0.0000000  -0.4375000   0.2812500), wk =   0.0048178
        k(    9) = (   0.0000000   0.5000000   0.2500000), wk =   0.0054201
        k(   10) = (   0.0000000   0.4375000   0.2187500), wk =   0.0060223
        k(   11) = (   0.0000000   0.3750000   0.1875000), wk =   0.0066245
        k(   12) = (   0.0000000   0.3125000   0.1562500), wk =   0.0072267
        k(   13) = (   0.0000000   0.2500000   0.1250000), wk =   0.0078290
        k(   14) = (   0.0000000   0.1875000   0.0937500), wk =   0.0084312
        k(   15) = (   0.0000000   0.1250000   0.0625000), wk =   0.0090334
        k(   16) = (   0.0000000   0.0625000   0.0312500), wk =   0.0096357
        k(   17) = (   0.0000000   0.0000000   0.0000000), wk =   0.0102379
        k(   18) = (   0.0000000   0.0625000   0.0000000), wk =   0.0108401
        k(   19) = (   0.0000000   0.1250000   0.0000000), wk =   0.0114423
        k(   20) = (   0.0000000   0.1875000   0.0000000), wk =   0.0120446
        k(   21) = (   0.0000000   0.2500000   0.0000000), wk =   0.0126468
        k(   22) = (   0.0000000   0.3125000   0.0000000), wk =   0.0132490
        k(   23) = (   0.0000000   0.3750000   0.0000000), wk =   0.0138512
        k(   24) = (   0.0000000   0.4375000   0.0000000), wk =   0.0144535
        k(   25) = (   0.0000000   0.5000000   0.0000000), wk =   0.0150557
        k(   26) = (   0.0000000  -0.4375000   0.0000000), wk =   0.0156579
        k(   27) = (   0.0000000  -0.3750000   0.0000000), wk =   0.0162602
        k(   28) = (   0.0000000  -0.3125000   0.0000000), wk =   0.0168624
        k(   29) = (   0.0000000  -0.2500000   0.0000000), wk =   0.0174646
        k(   30) = (   0.0000000  -0.1875000   0.0000000), wk =   0.0180668
        k(   31) = (   0.0000000  -0.1250000   0.0000000), wk =   0.0186691
        k(   32) = (   0.0000000  -0.0625000   0.0000000), wk =   0.0192713
        k(   33) = (   0.0000000   0.0000000   0.0000000), wk =   0.0198735
        k(   34) = (   0.0000000   0.0000000   0.0312500), wk =   0.0204758
        k(   35) = (   0.0000000   0.0000000   0.0625000), wk =   0.0210780
        k(   36) = (   0.0000000   0.0000000   0.0937500), wk =   0.0216802
        k(   37) = (   0.0000000   0.0000000   0.1250000), wk =   0.0222824
        k(   38) = (   0.0000000   0.0000000   0.1562500), wk =   0.0228847
        k(   39) = (   0.0000000   0.0000000   0.1875000), wk =   0.0234869
        k(   40) = (   0.0000000   0.0000000   0.2187500), wk =   0.0240891
        k(   41) = (   0.0000000   0.0000000   0.2500000), wk =   0.0246914
        k(   42) = (   0.0000000   0.0000000   0.2812500), wk =   0.0252936
        k(   43) = (   0.0000000   0.0000000   0.3125000), wk =   0.0258958
        k(   44) = (   0.0000000   0.0000000   0.3437500), wk =   0.0264980
        k(   45) = (   0.0000000   0.0000000   0.3750000), wk =   0.0271003
        k(   46) = (   0.0000000   0.0000000   0.4062500), wk =   0.0277025
        k(   47) = (   0.0000000   0.0000000   0.4375000), wk =   0.0283047
        k(   48) = (   0.0000000   0.0000000   0.4687500), wk =   0.0289070
        k(   49) = (   0.0000000   0.0000000   0.5000000), wk =   0.0295092
        k(   50) = (  -0.0312500  -0.0312500   0.5000000), wk =   0.0301114
        k(   51) = (  -0.0625000  -0.0625000   0.5000000), wk =   0.0307136
        k(   52) = (  -0.0937500  -0.0937500   0.5000000), wk =   0.0313159
        k(   53) = (  -0.1250000  -0.1250000   0.5000000), wk =   0.0319181
        k(   54) = (  -0.1562500  -0.1562500   0.5000000), wk =   0.0325203
        k(   55) = (  -0.1875000  -0.1875000   0.5000000), wk =   0.0331226
        k(   56) = (  -0.2187500  -0.2187500   0.5000000), wk =   0.0337248
        k(   57) = (  -0.2500000  -0.2500000   0.5000000), wk =   0.0343270
        k(   58) = (  -0.2812500  -0.2812500   0.5000000), wk =   0.0349292
        k(   59) = (  -0.3125000  -0.3125000   0.5000000), wk =   0.0355315
        k(   60) = (  -0.3437500  -0.3437500   0.5000000), wk =   0.0361337
        k(   61) = (  -0.3750000  -0.3750000   0.5000000), wk =   0.0367359
        k(   62) = (  -0.4062500  -0.4062500   0.5000000), wk =   0.0373382
        k(   63) = (  -0.4375000  -0.4375000   0.5000000), wk =   0.0379404
        k(   64) = (  -0.4687500  -0.4687500   0.5000000), wk =   0.0385426
        k(   65) = (   0.5000000   0.5000000   0.5000000), wk =   0.0391448
        k(   66) = (  -0.4687500   0.4687500   0.4687500), wk =   0.0397471
        k(   67) = (  -0.4375000   0.4375000   0.4375000), wk =   0.0403493
        k(   68) = (  -0.4062500   0.4062500   0.4062500), wk =   0.0409515
        k(   69) = (  -0.3750000   0.3750000   0.3750000), wk =   0.0415537
        k(   70) = (  -0.3437500   0.3437500   0.3437500), wk =   0.0421560
        k(   71) = (  -0.3125000   0.3125000   0.3125000), wk =   0.0427582
        k(   72) = (  -0.2812500   0.2812500   0.2812500), wk =   0.0433604
        k(   73) = (  -0.2500000   0.2500000   0.2500000), wk =   0.0439627
        k(   74) = (  -0.2187500   0.2187500   0.2187500), wk =   0.0445649
        k(   75) = (  -0.1875000   0.1875000   0.1875000), wk =   0.0451671
        k(   76) = (  -0.1562500   0.1562500   0.1562500), wk =   0.0457693
        k(   77) = (  -0.1250000   0.1250000   0.1250000), wk =   0.0463716
        k(   78) = (  -0.0937500   0.0937500   0.0937500), wk =   0.0469738
        k(   79) = (  -0.0625000   0.0625000   0.0625000), wk =   0.0475760
        k(   80) = (  -0.0312500   0.0312500   0.0312500), wk =   0.0481783
        k(   81) = (   0.0000000   0.0000000   0.0000000), wk =   0.0487805

     Dense  grid:    95193 G-vectors     FFT dimensions: (  60,  60,  60)

     Smooth grid:    51867 G-vectors     FFT dimensions: (  48,  48,  48)

     Estimated max dynamical RAM per process >     328.11 MB

     The potential is recalculated from file :
     ../tmp/sisc.save/charge-density

     Starting wfcs are   32 randomized atomic wfcs

     Band Structure Calculation
     Davidson diagonalization with overlap
     c_bands:  1 eigenvalues not converged

     ethr =  3.13E-12,  avg # of iterations = 64.4

     total cpu time spent up to now is      283.3 secs

     End of band structure calculation

          k = 0.0000 0.0000 0.5000 (  6480 PWs)   bands (ev):

    -4.7005  -4.7005  -1.4863  -1.4863  -1.4863  -1.4863   2.3215   2.3215
     2.3215   2.3215   2.6387   2.6387   4.2740   4.2740   4.2740   4.2740
     7.2953   7.2953   9.2974   9.2974  10.4326  10.4326  10.4326  10.4326
    11.1507  11.1507  11.1507  11.1507  11.9048  11.9048

          k = 0.0000-0.0625 0.4688 (  6476 PWs)   bands (ev):

    -4.8139  -4.5482  -1.8013  -1.7559  -1.2295  -1.1828   2.1255   2.1640
     2.3022   2.5549   2.5920   2.8411   4.0881   4.1968   4.3195   4.4509
     7.3087   7.4966   9.1253   9.5864   9.8422  10.2348  10.2739  10.6625
    10.9305  11.3391  11.4115  11.4685  11.6124  11.8130

          k = 0.0000-0.1250 0.4375 (  6465 PWs)   bands (ev):

    -4.8872  -4.3586  -2.1644  -1.9915  -1.0289  -0.8458   1.8980   1.9698
     2.1186   2.8214   2.8827   2.9564   3.7903   4.1512   4.2495   4.7523
     7.5129   7.8825   9.0879   9.1003   9.9366   9.9419  10.0733  10.7507
    10.8773  10.9222  11.2783  11.7090  11.7930  11.7981

          k = 0.0000-0.1875 0.4062 (  6474 PWs)   bands (ev):

    -4.9195  -4.1343  -2.5580  -2.1928  -0.8725  -0.4752   1.4732   1.8566
     2.1729   2.8084   3.1159   3.3713   3.4344   4.0936   4.1153   5.1163
     7.8582   8.3953   8.4432   9.1889   9.6152   9.9539   9.9633  10.6083
    10.6928  10.8992  11.2108  11.4363  12.0354  12.3218

          k = 0.0000-0.2500 0.3750 (  6474 PWs)   bands (ev):

    -4.9102  -3.8787  -2.9638  -2.3595  -0.7458  -0.0714   1.0523   1.7871
     2.3113   2.6718   3.0651   3.4316   3.7616   3.9583   4.0112   5.4393
     7.9518   8.3042   8.9843   9.3298   9.4195   9.5050   9.8840  10.4814
    10.4973  11.0007  11.1678  11.5265  12.3733  12.8784

          k = 0.0000-0.3125 0.3438 (  6460 PWs)   bands (ev):

    -4.8591  -3.5964  -3.3662  -2.4911  -0.6374   0.3656   0.6482   1.7620
     2.5034   2.5194   2.7124   3.7604   3.8034   3.9084   4.0165   5.5967
     7.7296   8.8255   9.0853   9.2148   9.5907   9.7563   9.8705  10.0617
    10.4104  10.5338  11.7210  11.8577  12.3729  12.6365

          k = 0.0000-0.3750 0.3125 (  6462 PWs)   bands (ev):

    -4.7659  -3.7538  -3.2944  -2.5875  -0.5422   0.2680   0.8353   1.7811
     2.3155   2.3972   2.7857   3.6640   3.7960   4.0409   4.0933   5.4925
     7.8664   8.8831   9.2563   9.4066   9.5164   9.9173   9.9425  10.2998
    10.3304  10.3404  11.5348  12.0201  12.4750  12.5527

          k = 0.0000-0.4375 0.2812 (  6465 PWs)   bands (ev):

    -4.6308  -4.1184  -2.9822  -2.6482  -0.4616  -0.0838   1.3372   1.8436
     2.1077   2.1367   3.1005   3.5470   3.6849   3.8593   4.4207   5.1636
     8.3367   8.7239   9.0607   9.5009   9.6069  10.0107  10.0365  10.2937
    10.7775  10.8897  10.9876  11.4317  12.2086  12.2119

          k = 0.0000 0.5000 0.2500 (  6452 PWs)   bands (ev):

    -4.4540  -4.4540  -2.6732  -2.6732  -0.4039  -0.4039   1.8705   1.8705
     1.9479   1.9479   3.4552   3.4552   3.5836   3.5836   4.7337   4.7337
     8.6076   8.6076   9.0298   9.0298  10.0493  10.0493  10.3594  10.3594
    10.7009  10.7009  11.3681  11.3681  11.6512  11.6512

          k = 0.0000 0.4375 0.2188 (  6472 PWs)   bands (ev):

    -4.7566  -4.2360  -2.6624  -2.3845  -0.6903  -0.3839   1.5873   1.8485
     2.0912   2.4336   3.3119   3.3888   3.4975   3.8415   4.3066   5.0253
     8.1796   8.5334   8.5815   9.5723   9.8134   9.9610   9.9761  10.5901
    10.6179  10.9051  11.1212  11.3201  12.0186  12.2261

          k = 0.0000 0.3750 0.1875 (  6484 PWs)   bands (ev):

    -5.0231  -3.9773  -2.6159  -2.1349  -0.9413  -0.4186   1.2419   1.8558
     2.2695   3.0239   3.1056   3.3459   3.4294   3.9447   4.2503   5.2907
     7.7898   8.1684   8.4995   9.0014   9.2820   9.7025   9.8123  10.6229
    10.8852  10.9007  10.9505  11.6678  12.3249  12.7151

          k = 0.0000 0.3125 0.1562 (  6495 PWs)   bands (ev):

    -5.2515  -3.6789  -2.5341  -1.9398  -1.1555  -0.5200   0.8298   1.9799
     2.4759   2.9961   3.3229   3.3796   3.6371   3.6755   4.6705   5.5275
     7.4503   7.7996   8.4771   8.5026   8.6341   9.0244   9.6284  10.0173
    10.1583  11.1288  11.8679  12.4892  12.8990  13.0646

          k = 0.0000 0.2500 0.1250 (  6493 PWs)   bands (ev):

    -5.4401  -3.3419  -2.4179  -1.8040  -1.3320  -0.6865   0.3633   2.2158
     2.7001   2.9870   3.3143   3.3468   3.4972   4.2651   5.0878   5.7339
     7.1724   7.4830   8.0110   8.0485   8.3860   8.5368   9.1098   9.4256
     9.7310  11.0682  12.7583  12.9022  13.3460  13.8616

          k = 0.0000 0.1875 0.0938 (  6492 PWs)   bands (ev):

    -5.5878  -2.9679  -2.2686  -1.7205  -1.4700  -0.9025  -0.1363   2.5370
     2.9251   3.0570   3.3139   3.3277   3.3923   4.8920   5.4820   5.9069
     6.9676   7.2263   7.5470   7.6108   7.8229   8.2810   8.5923   9.2192
     9.3491  10.6107  13.0022  13.8920  13.9607  14.2177

          k = 0.0000 0.1250 0.0625 (  6497 PWs)   bands (ev):

    -5.6938  -2.5590  -2.0882  -1.6752  -1.5689  -1.1471  -0.6480   2.8914
     3.1249   3.1679   3.3155   3.3186   3.3392   5.4834   5.8229   6.0406
     6.8462   7.0365   7.1596   7.2839   7.3609   7.5759   8.6540   9.0175
     9.0295  10.0501  13.3984  13.8778  14.4685  14.9990

          k = 0.0000 0.0625 0.0312 (  6499 PWs)   bands (ev):

    -5.7576  -2.1179  -1.8799  -1.6543  -1.6285  -1.4006  -1.1558   3.1911
     3.2649   3.2707   3.3152   3.3155   3.3185   5.9585   6.0659   6.1265
     6.8159   6.9198   6.9254   7.0338   7.0381   7.0711   8.7032   8.8052
     8.8241   9.6269  13.7456  13.8837  14.1985  15.8363

          k = 0.0000 0.0000 0.0000 (  6451 PWs)   bands (ev):

    -5.7789  -1.6484  -1.6483  -1.6483  -1.6483  -1.6483  -1.6483   3.3144
     3.3144   3.3144   3.3144   3.3144   3.3144   6.1564   6.1564   6.1564
     6.8803   6.8803   6.8803   6.8803   6.8803   6.8803   8.7220   8.7220
     8.7220   9.4786  13.8878  13.8878  14.1041  16.2356

          k = 0.0000 0.0625 0.0000 (  6503 PWs)   bands (ev):

    -5.7619  -2.1199  -1.6427  -1.6427  -1.6427  -1.6427  -1.1565   3.2639
     3.2639   3.2639   3.2639   3.3298   3.3298   6.0408   6.0844   6.0844
     6.7914   6.9739   6.9739   6.9739   6.9739   7.0153   8.6800   8.8150
     8.8150   9.5914  13.7512  13.9067  14.1799  15.9108

          k = 0.0000 0.1250 0.0000 (  6495 PWs)   bands (ev):

    -5.7108  -2.5690  -1.6265  -1.6265  -1.6265  -1.6264  -0.6466   3.1290
     3.1290   3.1290   3.1290   3.3759   3.3759   5.7340   5.8950   5.8950
     6.7469   7.1978   7.2381   7.2381   7.2381   7.2381   8.5615   9.0672
     9.0672   9.8815  13.4053  13.9632  14.3993  15.3552

          k = 0.0000 0.1875 0.0000 (  6495 PWs)   bands (ev):

    -5.6257  -2.9937  -1.6015  -1.6015  -1.6015  -1.6015  -0.1214   2.9471
     2.9471   2.9471   2.9471   3.4526   3.4526   5.3090   5.6383   5.6383
     6.7450   7.4292   7.6369   7.6369   7.6369   7.6369   8.3851   9.4280
     9.4280  10.2419  12.9870  14.0574  14.7431  14.7693

          k = 0.0000 0.2500 0.0000 (  6495 PWs)   bands (ev):

    -5.5069  -3.3923  -1.5712  -1.5712  -1.5712  -1.5712   0.4166   2.7545
     2.7545   2.7545   2.7545   3.5594   3.5594   4.8193   5.3535   5.3535
     6.7836   7.7100   8.1357   8.1357   8.1357   8.1357   8.1728   9.8577
     9.8577  10.5223  12.6700  13.9902  13.9902  13.9902

          k = 0.0000 0.3125 0.0000 (  6491 PWs)   bands (ev):

    -5.3546  -3.7635  -1.5397  -1.5397  -1.5397  -1.5397   0.9644   2.5790
     2.5790   2.5790   2.5790   3.6959   3.6959   4.2948   5.0638   5.0638
     6.8607   7.9442   8.0403   8.7081   8.7081   8.7081   8.7081  10.3319
    10.3319  10.5219  12.6705  13.1793  13.1793  13.1793

          k = 0.0000 0.3750 0.0000 (  6503 PWs)   bands (ev):

    -5.1691  -4.1060  -1.5121  -1.5121  -1.5121  -1.5121   1.5192   2.4404
     2.4404   2.4404   2.4404   3.7514   3.8613   3.8613   4.7826   4.7826
     6.9737   7.7147   8.4184   9.3333   9.3333   9.3333   9.3333  10.2151
    10.8364  10.8364  12.3846  12.3846  12.3846  12.3846

          k = 0.0000 0.4375 0.0000 (  6467 PWs)   bands (ev):

    -4.9509  -4.4186  -1.4931  -1.4931  -1.4931  -1.4931   2.0783   2.3519
     2.3519   2.3519   2.3519   3.1977   4.0545   4.0545   4.5178   4.5178
     7.1198   7.4956   8.8404   9.7705   9.9818   9.9818   9.9818   9.9818
    11.3625  11.3625  11.6352  11.6352  11.6352  11.6352

          k = 0.0000 0.5000 0.0000 (  6480 PWs)   bands (ev):

    -4.7005  -4.7005  -1.4863  -1.4863  -1.4863  -1.4863   2.3215   2.3215
     2.3215   2.3215   2.6387   2.6387   4.2740   4.2740   4.2740   4.2740
     7.2953   7.2953   9.2974   9.2974  10.4326  10.4326  10.4326  10.4326
    11.1507  11.1507  11.1507  11.1507  11.9048  11.9048

          k = 0.0000-0.4375 0.0000 (  6467 PWs)   bands (ev):

    -4.9509  -4.4186  -1.4931  -1.4931  -1.4931  -1.4931   2.0783   2.3519
     2.3519   2.3519   2.3519   3.1977   4.0545   4.0545   4.5178   4.5178
     7.1198   7.4956   8.8404   9.7705   9.9818   9.9818   9.9818   9.9818
    11.3625  11.3625  11.6352  11.6352  11.6352  11.6352

          k = 0.0000-0.3750 0.0000 (  6503 PWs)   bands (ev):

    -5.1691  -4.1060  -1.5121  -1.5121  -1.5121  -1.5121   1.5192   2.4404
     2.4404   2.4404   2.4404   3.7514   3.8613   3.8613   4.7826   4.7826
     6.9737   7.7147   8.4184   9.3333   9.3333   9.3333   9.3333  10.2151
    10.8364  10.8364  12.3846  12.3846  12.3846  12.3846

          k = 0.0000-0.3125 0.0000 (  6491 PWs)   bands (ev):

    -5.3546  -3.7635  -1.5397  -1.5397  -1.5397  -1.5397   0.9644   2.5790
     2.5790   2.5790   2.5790   3.6959   3.6959   4.2948   5.0638   5.0638
     6.8607   7.9442   8.0403   8.7081   8.7081   8.7081   8.7081  10.3319
    10.3319  10.5219  12.6705  13.1793  13.1793  13.1793

          k = 0.0000-0.2500 0.0000 (  6495 PWs)   bands (ev):

    -5.5069  -3.3923  -1.5712  -1.5712  -1.5712  -1.5712   0.4166   2.7545
     2.7545   2.7545   2.7545   3.5594   3.5594   4.8193   5.3535   5.3535
     6.7836   7.7100   8.1357   8.1357   8.1357   8.1357   8.1728   9.8577
     9.8577  10.5223  12.6700  13.9902  13.9902  13.9902

          k = 0.0000-0.1875 0.0000 (  6495 PWs)   bands (ev):

    -5.6257  -2.9937  -1.6015  -1.6015  -1.6015  -1.6015  -0.1214   2.9471
     2.9471   2.9471   2.9471   3.4526   3.4526   5.3090   5.6383   5.6383
     6.7450   7.4292   7.6369   7.6369   7.6369   7.6369   8.3851   9.4280
     9.4280  10.2419  12.9870  14.0574  14.7431  14.7693

          k = 0.0000-0.1250 0.0000 (  6495 PWs)   bands (ev):

    -5.7108  -2.5690  -1.6265  -1.6265  -1.6265  -1.6264  -0.6466   3.1290
     3.1290   3.1290   3.1290   3.3759   3.3759   5.7340   5.8950   5.8950
     6.7469   7.1978   7.2381   7.2381   7.2381   7.2381   8.5615   9.0672
     9.0672   9.8815  13.4053  13.9632  14.3993  15.3552

          k = 0.0000-0.0625 0.0000 (  6503 PWs)   bands (ev):

    -5.7619  -2.1199  -1.6427  -1.6427  -1.6427  -1.6427  -1.1565   3.2639
     3.2639   3.2639   3.2639   3.3298   3.3298   6.0408   6.0844   6.0844
     6.7914   6.9739   6.9739   6.9739   6.9739   7.0153   8.6800   8.8150
     8.8150   9.5914  13.7512  13.9067  14.1799  15.9108

          k = 0.0000 0.0000 0.0000 (  6451 PWs)   bands (ev):

    -5.7789  -1.6484  -1.6483  -1.6483  -1.6483  -1.6483  -1.6483   3.3144
     3.3144   3.3144   3.3144   3.3144   3.3144   6.1564   6.1564   6.1564
     6.8803   6.8803   6.8803   6.8803   6.8803   6.8803   8.7220   8.7220
     8.7220   9.4786  13.8878  13.8878  14.1041  16.2356

          k = 0.0000 0.0000 0.0312 (  6495 PWs)   bands (ev):

    -5.7747  -1.8868  -1.6469  -1.6469  -1.6469  -1.6469  -1.4048   3.3015
     3.3015   3.3015   3.3015   3.3183   3.3183   6.1267   6.1379   6.1379
     6.8302   6.9040   6.9040   6.9040   6.9040   6.9420   8.7114   8.7458
     8.7458   9.5077  13.8525  13.8926  14.1232  16.1355

          k = 0.0000 0.0000 0.0625 (  6503 PWs)   bands (ev):

    -5.7619  -2.1199  -1.6427  -1.6427  -1.6427  -1.6427  -1.1565   3.2639
     3.2639   3.2639   3.2639   3.3298   3.3298   6.0408   6.0844   6.0844
     6.7914   6.9739   6.9739   6.9739   6.9739   7.0153   8.6800   8.8150
     8.8150   9.5914  13.7512  13.9067  14.1799  15.9108

          k = 0.0000 0.0000 0.0938 (  6507 PWs)   bands (ev):

    -5.7406  -2.3474  -1.6358  -1.6358  -1.6358  -1.6358  -0.9036   3.2048
     3.2048   3.2048   3.2048   3.3491   3.3491   5.9066   6.0012   6.0012
     6.7638   7.0867   7.0867   7.0867   7.0867   7.1005   8.6293   8.9243
     8.9243   9.7202  13.5966  13.9302  14.2727  15.6410

          k = 0.0000 0.0000 0.1250 (  6495 PWs)   bands (ev):

    -5.7108  -2.5690  -1.6265  -1.6265  -1.6265  -1.6264  -0.6466   3.1290
     3.1290   3.1290   3.1290   3.3759   3.3759   5.7340   5.8950   5.8950
     6.7469   7.1978   7.2381   7.2381   7.2381   7.2381   8.5615   9.0672
     9.0672   9.8815  13.4053  13.9632  14.3993  15.3552

          k = 0.0000 0.0000 0.1562 (  6491 PWs)   bands (ev):

    -5.6725  -2.7845  -1.6149  -1.6149  -1.6149  -1.6149  -0.3858   3.0415
     3.0415   3.0415   3.0415   3.4105   3.4105   5.5323   5.7722   5.7722
     6.7408   7.3074   7.4230   7.4230   7.4230   7.4230   8.4792   9.2369
     9.2369  10.0608  13.1956  14.0056  14.5571  15.0632

          k = 0.0000 0.0000 0.1875 (  6495 PWs)   bands (ev):

    -5.6257  -2.9937  -1.6015  -1.6015  -1.6015  -1.6015  -0.1214   2.9471
     2.9471   2.9471   2.9471   3.4526   3.4526   5.3090   5.6383   5.6383
     6.7450   7.4292   7.6369   7.6369   7.6369   7.6369   8.3851   9.4280
     9.4280  10.2419  12.9870  14.0574  14.7431  14.7693

          k = 0.0000 0.0000 0.2188 (  6499 PWs)   bands (ev):

    -5.5705  -3.1964  -1.5868  -1.5868  -1.5868  -1.5868   0.1462   2.8501
     2.8501   2.8501   2.8501   3.5023   3.5023   5.0699   5.4977   5.4977
     6.7594   7.5634   7.8757   7.8757   7.8757   7.8757   8.2821   9.6361
     9.6361  10.4044  12.8023  14.1186  14.3948  14.3948

          k = 0.0000 0.0000 0.2500 (  6495 PWs)   bands (ev):

    -5.5069  -3.3923  -1.5712  -1.5712  -1.5712  -1.5712   0.4166   2.7545
     2.7545   2.7545   2.7545   3.5594   3.5594   4.8193   5.3535   5.3535
     6.7836   7.7100   8.1357   8.1357   8.1357   8.1357   8.1728   9.8577
     9.8577  10.5223  12.6700  13.9902  13.9902  13.9902

          k = 0.0000 0.0000 0.2812 (  6491 PWs)   bands (ev):

    -5.4349  -3.5815  -1.5553  -1.5553  -1.5553  -1.5553   0.6894   2.6632
     2.6632   2.6632   2.6632   3.6240   3.6240   4.5602   5.2082   5.2082
     6.8175   7.8691   8.0595   8.4140   8.4140   8.4140   8.4140  10.0903
    10.0903  10.5668  12.6203  13.5840  13.5840  13.5840

          k = 0.0000 0.0000 0.3125 (  6491 PWs)   bands (ev):

    -5.3546  -3.7635  -1.5397  -1.5397  -1.5397  -1.5397   0.9644   2.5790
     2.5790   2.5790   2.5790   3.6959   3.6959   4.2948   5.0638   5.0638
     6.8607   7.9442   8.0403   8.7081   8.7081   8.7081   8.7081  10.3319
    10.3319  10.5219  12.6705  13.1793  13.1793  13.1793

          k = 0.0000 0.0000 0.3438 (  6507 PWs)   bands (ev):

    -5.2659  -3.9384  -1.5251  -1.5251  -1.5251  -1.5251   1.2411   2.5042
     2.5042   2.5042   2.5042   3.7750   3.7750   4.0248   4.9216   4.9216
     6.9129   7.8288   8.2236   9.0154   9.0154   9.0154   9.0154  10.3965
    10.5810  10.5810  12.7787  12.7787  12.7787  12.7787

          k = 0.0000 0.0000 0.3750 (  6503 PWs)   bands (ev):

    -5.1691  -4.1060  -1.5121  -1.5121  -1.5121  -1.5121   1.5192   2.4404
     2.4404   2.4404   2.4404   3.7514   3.8613   3.8613   4.7826   4.7826
     6.9737   7.7147   8.4184   9.3333   9.3333   9.3333   9.3333  10.2151
    10.8364  10.8364  12.3846  12.3846  12.3846  12.3846

          k = 0.0000 0.0000 0.4062 (  6495 PWs)   bands (ev):

    -5.0640  -4.2661  -1.5012  -1.5012  -1.5012  -1.5012   1.7984   2.3893
     2.3893   2.3893   2.3893   3.4754   3.9545   3.9545   4.6478   4.6478
     7.0428   7.6033   8.6243   9.6581   9.6581   9.6581   9.6581  10.0010
    11.0971  11.0971  12.0009  12.0009  12.0009  12.0009

          k = 0.0000 0.0000 0.4375 (  6467 PWs)   bands (ev):

    -4.9509  -4.4186  -1.4931  -1.4931  -1.4931  -1.4931   2.0783   2.3519
     2.3519   2.3519   2.3519   3.1977   4.0545   4.0545   4.5178   4.5178
     7.1198   7.4956   8.8404   9.7705   9.9818   9.9818   9.9818   9.9818
    11.3625  11.3625  11.6352  11.6352  11.6352  11.6352

          k = 0.0000 0.0000 0.4688 (  6472 PWs)   bands (ev):

    -4.8297  -4.5635  -1.4880  -1.4880  -1.4880  -1.4880   2.3291   2.3291
     2.3291   2.3291   2.3585   2.9186   4.1611   4.1611   4.3930   4.3930
     7.2041   7.3927   9.0653   9.5338  10.2783  10.2783  10.2783  10.2783
    11.3134  11.3134  11.3134  11.3134  11.6319  11.6319

          k = 0.0000 0.0000 0.5000 (  6480 PWs)   bands (ev):

    -4.7005  -4.7005  -1.4863  -1.4863  -1.4863  -1.4863   2.3215   2.3215
     2.3215   2.3215   2.6387   2.6387   4.2740   4.2740   4.2740   4.2740
     7.2953   7.2953   9.2974   9.2974  10.4326  10.4326  10.4326  10.4326
    11.1507  11.1507  11.1507  11.1507  11.9048  11.9048

          k =-0.0312-0.0312 0.5000 (  6482 PWs)   bands (ev):

    -4.6927  -4.6927  -1.6902  -1.6902  -1.2871  -1.2871   2.1858   2.1858
     2.4877   2.4877   2.6044   2.6044   4.2562   4.2562   4.2793   4.2793
     7.3474   7.3474   9.3262   9.3262  10.2510  10.2510  10.5022  10.5022
    11.0799  11.0799  11.3687  11.3687  11.8314  11.8314

          k =-0.0625-0.0625 0.5000 (  6474 PWs)   bands (ev):

    -4.6695  -4.6695  -1.8933  -1.8933  -1.1002  -1.1002   2.0889   2.0889
     2.5008   2.5008   2.6773   2.6773   4.2147   4.2147   4.2949   4.2949
     7.4885   7.4885   9.4159   9.4159  10.0545  10.0545  10.3810  10.3810
    11.2345  11.2345  11.6354  11.6354  11.6369  11.6369

          k =-0.0938-0.0938 0.5000 (  6482 PWs)   bands (ev):

    -4.6310  -4.6310  -2.0913  -2.0912  -0.9344  -0.9344   2.0405   2.0405
     2.3298   2.3298   2.8845   2.8845   4.1742   4.1742   4.3207   4.3207
     7.6817   7.6817   9.5751   9.5751   9.8694   9.8694  10.1856  10.1856
    11.3645  11.3645  11.4973  11.4973  11.6671  11.6671

          k =-0.1250-0.1250 0.5000 (  6480 PWs)   bands (ev):

    -4.5775  -4.5775  -2.2810  -2.2810  -0.7988  -0.7988   2.0499   2.0499
     2.0997   2.0997   3.1040   3.1040   4.1540   4.1540   4.3561   4.3561
     7.8863   7.8863   9.7038   9.7038   9.8122   9.8123   9.9794   9.9794
    11.0593  11.0593  11.4985  11.4985  11.8043  11.8043

          k =-0.1562-0.1562 0.5000 (  6470 PWs)   bands (ev):

    -4.5096  -4.5096  -2.4602  -2.4602  -0.7001  -0.7001   1.8248   1.8248
     2.1238   2.1238   3.3308   3.3308   4.1613   4.1613   4.4004   4.4004
     8.0721   8.0721   9.5617   9.5617   9.7776   9.7776  10.1174  10.1174
    10.7603  10.7603  11.3001  11.3001  12.1391  12.1391

          k =-0.1875-0.1875 0.5000 (  6460 PWs)   bands (ev):

    -4.4280  -4.4280  -2.6273  -2.6273  -0.6400  -0.6400   1.5213   1.5213
     2.2638   2.2638   3.5602   3.5602   4.1952   4.1952   4.4527   4.4527
     8.2240   8.2241   9.4454   9.4454   9.5841   9.5841  10.2792  10.2792
    10.6909  10.6909  11.0817  11.0817  12.4964  12.4964

          k =-0.2188-0.2188 0.5000 (  6464 PWs)   bands (ev):

    -4.3336  -4.3336  -2.7809  -2.7809  -0.6146  -0.6146   1.2033   1.2033
     2.4650   2.4650   3.7871   3.7871   4.2520   4.2520   4.5115   4.5116
     8.3369   8.3370   9.3569   9.3569   9.3990   9.3990  10.0473  10.0473
    10.8529  10.8529  11.1027  11.1027  12.6594  12.6594

          k =-0.2500-0.2500 0.5000 (  6456 PWs)   bands (ev):

    -4.2279  -4.2278  -2.9202  -2.9202  -0.6158  -0.6158   0.8820   0.8820
     2.7185   2.7185   4.0064   4.0064   4.3271   4.3271   4.5754   4.5755
     8.4050   8.4050   9.2203   9.2203   9.2976   9.2976   9.7932   9.7932
    10.6223  10.6223  11.6257  11.6257  12.0612  12.0612

          k =-0.2812-0.2812 0.5000 (  6452 PWs)   bands (ev):

    -4.1127  -4.1127  -3.0444  -3.0444  -0.6350  -0.6350   0.5665   0.5665
     3.0132   3.0132   4.2129   4.2129   4.4163   4.4163   4.6424   4.6424
     8.4154   8.4154   9.0440   9.0440   9.2681   9.2681   9.5906   9.5906
    10.3977  10.3977  11.4929  11.4929  12.1935  12.1935

          k =-0.3125-0.3125 0.5000 (  6448 PWs)   bands (ev):

    -3.9909  -3.9909  -3.1529  -3.1529  -0.6640  -0.6640   0.2644   0.2644
     3.3381   3.3381   4.4014   4.4014   4.5151   4.5151   4.7100   4.7100
     8.3550   8.3550   8.8628   8.8628   9.2675   9.2675   9.4657   9.4657
    10.1861  10.1861  10.9682  10.9682  12.7826  12.7826

          k =-0.3438-0.3438 0.5000 (  6462 PWs)   bands (ev):

    -3.8664  -3.8664  -3.2453  -3.2453  -0.6968  -0.6968  -0.0170  -0.0170
     3.6817   3.6817   4.5674   4.5674   4.6186   4.6186   4.7754   4.7755
     8.2316   8.2316   8.6664   8.6664   9.2928   9.2928   9.4178   9.4178
     9.9938   9.9938  10.5043  10.5043  13.3579  13.3579

          k =-0.3750-0.3750 0.5000 (  6486 PWs)   bands (ev):

    -3.7445  -3.7444  -3.3213  -3.3213  -0.7285  -0.7285  -0.2698  -0.2698
     4.0309   4.0309   4.7069   4.7069   4.7209   4.7209   4.8356   4.8356
     8.0768   8.0768   8.4446   8.4446   9.3383   9.3383   9.4207   9.4207
     9.8266   9.8266  10.1214  10.1215  13.8144  13.8144

          k =-0.4062-0.4062 0.5000 (  6478 PWs)   bands (ev):

    -3.6327  -3.6326  -3.3807  -3.3807  -0.7560  -0.7560  -0.4849  -0.4849
     4.3680   4.3680   4.8148   4.8148   4.8173   4.8173   4.8872   4.8872
     7.9238   7.9238   8.1976   8.1976   9.3946   9.3946   9.4462   9.4462
     9.6900   9.6900   9.8347   9.8347  13.9729  13.9729

          k =-0.4375-0.4375 0.5000 (  6484 PWs)   bands (ev):

    -3.5406  -3.5406  -3.4232  -3.4232  -0.7771  -0.7771  -0.6514  -0.6514
     4.6653   4.6653   4.8917   4.8917   4.8968   4.8968   4.9269   4.9269
     7.7969   7.7969   7.9512   7.9512   9.4496   9.4496   9.4754   9.4754
     9.5885   9.5885   9.6443   9.6443  13.9485  13.9485

          k =-0.4688-0.4688 0.5000 (  6474 PWs)   bands (ev):

    -3.4791  -3.4791  -3.4488  -3.4488  -0.7902  -0.7902  -0.7579  -0.7579
     4.8801   4.8801   4.9427   4.9427   4.9447   4.9447   4.9520   4.9521
     7.7134   7.7134   7.7588   7.7588   9.4900   9.4900   9.4970   9.4970
     9.5259   9.5259   9.5385   9.5385  13.9038  13.9038

          k = 0.5000 0.5000 0.5000 (  6488 PWs)   bands (ev):

    -3.4573  -3.4573  -3.4573  -3.4573  -0.7947  -0.7947  -0.7947  -0.7947
     4.9606   4.9606   4.9606   4.9606   4.9606   4.9606   4.9607   4.9607
     7.6842   7.6843   7.6843   7.6843   9.5048   9.5048   9.5048   9.5048
     9.5048   9.5048   9.5048   9.5048  13.8858  13.8858

          k =-0.4688 0.4688 0.4688 (  6479 PWs)   bands (ev):

    -3.5117  -3.4522  -3.4522  -3.4522  -0.7799  -0.7799  -0.7799  -0.7162
     4.8612   4.8612   4.8612   4.9340   4.9340   4.9340   4.9676   4.9676
     7.6923   7.7833   7.7833   7.7833   9.4808   9.4808   9.4808   9.5128
     9.5128   9.5562   9.5562   9.5562  13.8982  13.9371

          k =-0.4375 0.4375 0.4375 (  6482 PWs)   bands (ev):

    -3.6580  -3.4365  -3.4365  -3.4365  -0.7362  -0.7362  -0.7362  -0.4978
     4.6032   4.6032   4.6032   4.8579   4.8579   4.8580   4.9887   4.9887
     7.7165   8.0241   8.0241   8.0241   9.4336   9.4336   9.4336   9.5359
     9.5359   9.7067   9.7067   9.7067  13.9335  14.0519

          k =-0.4062 0.4062 0.4062 (  6485 PWs)   bands (ev):

    -3.8615  -3.4096  -3.4096  -3.4096  -0.6665  -0.6665  -0.6665  -0.1743
     4.2592   4.2592   4.2592   4.7423   4.7423   4.7423   5.0236   5.0236
     7.7565   8.2676   8.2676   8.2676   9.4517   9.4518   9.4518   9.5714
     9.5714   9.9462   9.9462   9.9462  13.9853  14.0172

          k =-0.3750 0.3750 0.3750 (  6470 PWs)   bands (ev):

    -4.0917  -3.3706  -3.3706  -3.3706  -0.5754  -0.5754  -0.5754   0.2233
     3.8830   3.8830   3.8830   4.5993   4.5993   4.5993   5.0724   5.0724
     7.8122   8.3496   8.3496   8.3496   9.6140   9.6140   9.6714   9.6715
     9.6715  10.2621  10.2621  10.2621  13.5200  13.5200

          k =-0.3438 0.3438 0.3438 (  6452 PWs)   bands (ev):

    -4.3288  -3.3184  -3.3184  -3.3184  -0.4705  -0.4705  -0.4705   0.6743
     3.5084   3.5084   3.5084   4.4408   4.4408   4.4408   5.1349   5.1349
     7.8829   8.2563   8.2563   8.2563   9.6562   9.6562  10.0970  10.0970
    10.0970  10.6423  10.6423  10.6423  12.8169  12.8169

          k =-0.3125 0.3125 0.3125 (  6469 PWs)   bands (ev):

    -4.5605  -3.2517  -3.2517  -3.2517  -0.3634  -0.3634  -0.3634   1.1656
     3.1600   3.1600   3.1600   4.2765   4.2765   4.2765   5.2106   5.2106
     7.9680   8.0825   8.0825   8.0825   9.6874   9.6874  10.6288  10.6289
    10.6289  11.0764  11.0764  11.0764  12.0861  12.0861

          k =-0.2812 0.2812 0.2812 (  6469 PWs)   bands (ev):

    -4.7797  -3.1695  -3.1695  -3.1695  -0.2710  -0.2710  -0.2710   1.6886
     2.8608   2.8608   2.8608   4.1142   4.1142   4.1142   5.2990   5.2990
     7.8845   7.8845   7.8845   8.0661   9.6943   9.6943  11.1286  11.1286
    11.1286  11.4501  11.4501  11.4501  11.5558  11.5559

          k =-0.2500 0.2500 0.2500 (  6469 PWs)   bands (ev):

    -4.9819  -3.0708  -3.0708  -3.0708  -0.2159  -0.2159  -0.2159   2.2370
     2.6360   2.6360   2.6360   3.9594   3.9594   3.9594   5.3990   5.3990
     7.6865   7.6865   7.6865   8.1756   9.6640   9.6640  10.6081  10.6081
    10.6081  11.8867  11.8867  11.8867  12.0739  12.0739

          k =-0.2188 0.2188 0.2188 (  6481 PWs)   bands (ev):

    -5.1642  -2.9548  -2.9548  -2.9548  -0.2225  -0.2225  -0.2225   2.5096
     2.5096   2.5096   2.8050   3.8163   3.8163   3.8163   5.5091   5.5091
     7.5002   7.5002   7.5002   8.2938   9.5880   9.5880   9.9342   9.9342
     9.9342  12.5091  12.5247  12.5247  12.5247  12.6246

          k =-0.1875 0.1875 0.1875 (  6481 PWs)   bands (ev):

    -5.3247  -2.8208  -2.8208  -2.8208  -0.3053  -0.3052  -0.3052   2.4936
     2.4937   2.4937   3.3869   3.6879   3.6879   3.6879   5.6267   5.6267
     7.3320   7.3320   7.3320   8.4168   9.2887   9.2887   9.2887   9.4673
     9.4673  11.9526  13.1804  13.1804  13.1804  13.2023

          k =-0.1562 0.1562 0.1562 (  6481 PWs)   bands (ev):

    -5.4621  -2.6687  -2.6687  -2.6687  -0.4592  -0.4592  -0.4592   2.5783
     2.5783   2.5783   3.5764   3.5764   3.5764   3.9753   5.7483   5.7483
     7.1857   7.1857   7.1857   8.5387   8.6844   8.6844   8.6844   9.3135
     9.3135  11.3899  13.2834  13.2834  13.8006  13.8006

          k =-0.1250 0.1250 0.1250 (  6493 PWs)   bands (ev):

    -5.5755  -2.4983  -2.4983  -2.4983  -0.6652  -0.6652  -0.6652   2.7354
     2.7354   2.7354   3.4834   3.4834   3.4834   4.5594   5.8685   5.8685
     7.0639   7.0639   7.0639   8.1331   8.1331   8.1331   8.6509   9.1448
     9.1448  10.8345  13.4075  13.4075  14.4102  14.4102

          k =-0.0938 0.0938 0.0938 (  6487 PWs)   bands (ev):

    -5.6642  -2.3101  -2.3101  -2.3101  -0.9015  -0.9015  -0.9015   2.9289
     2.9289   2.9289   3.4100   3.4100   3.4100   5.1211   5.9798   5.9798
     6.9684   6.9684   6.9684   7.6513   7.6513   7.6513   8.7393   8.9820
     8.9820  10.3097  13.5653  13.5653  14.5812  15.0156

          k =-0.0625 0.0625 0.0625 (  6499 PWs)   bands (ev):

    -5.7279  -2.1047  -2.1047  -2.1047  -1.1512  -1.1512  -1.1512   3.1188
     3.1188   3.1188   3.3571   3.3571   3.3571   5.6260   6.0722   6.0722
     6.9009   6.9009   6.9009   7.2633   7.2633   7.2633   8.7813   8.8455
     8.8455   9.8625  13.7231  13.7231  14.3261  15.5846

          k =-0.0312 0.0312 0.0312 (  6505 PWs)   bands (ev):

    -5.7662  -1.8834  -1.8834  -1.8834  -1.4026  -1.4026  -1.4026   3.2610
     3.2610   3.2610   3.3251   3.3251   3.3251   6.0070   6.1343   6.1343
     6.8655   6.8655   6.8655   7.0002   7.0002   7.0002   8.7542   8.7542
     8.7567   9.5708  13.8427  13.8427  14.1610  16.0426

          k = 0.0000 0.0000 0.0000 (  6451 PWs)   bands (ev):

    -5.7789  -1.6484  -1.6483  -1.6483  -1.6483  -1.6483  -1.6483   3.3144
     3.3144   3.3144   3.3144   3.3144   3.3144   6.1564   6.1564   6.1564
     6.8803   6.8803   6.8803   6.8803   6.8803   6.8803   8.7220   8.7220
     8.7220   9.4786  13.8878  13.8878  14.1041  16.2356

     Writing output data file ../tmp/sisc.save/

     init_run     :      0.74s CPU      0.83s WALL (       1 calls)
     electrons    :    280.78s CPU    282.29s WALL (       1 calls)

     Called by init_run:
     wfcinit      :      0.00s CPU      0.00s WALL (       1 calls)
     potinit      :      0.09s CPU      0.10s WALL (       1 calls)
     hinit0       :      0.22s CPU      0.22s WALL (       1 calls)

     Called by electrons:
     c_bands      :    280.78s CPU    282.28s WALL (       1 calls)
     v_of_rho     :      0.08s CPU      0.09s WALL (       1 calls)
     newd         :      0.34s CPU      0.41s WALL (       1 calls)

     Called by c_bands:
     init_us_2    :      0.20s CPU      0.28s WALL (      81 calls)
     cegterg      :    270.52s CPU    271.62s WALL (     291 calls)

     Called by *egterg:
     cdiaghg      :      4.55s CPU      4.57s WALL (    5298 calls)
     h_psi        :    196.35s CPU    197.20s WALL (    5589 calls)
     s_psi        :     21.71s CPU     21.77s WALL (    5589 calls)
     g_psi        :      2.17s CPU      2.18s WALL (    5217 calls)

     Called by h_psi:
     h_psi:calbec :     21.24s CPU     21.33s WALL (    5589 calls)
     vloc_psi     :    151.77s CPU    152.45s WALL (    5589 calls)
     add_vuspsi   :     21.97s CPU     22.05s WALL (    5589 calls)

     General routines
     calbec       :     21.22s CPU     21.32s WALL (    5589 calls)
     fft          :      0.02s CPU      0.02s WALL (      13 calls)
     ffts         :      0.00s CPU      0.00s WALL (       1 calls)
     fftw         :    131.75s CPU    132.37s WALL (  167306 calls)
     interpolate  :      0.00s CPU      0.00s WALL (       1 calls)
     davcio       :      0.06s CPU      0.40s WALL (     162 calls)


     PWSCF        :   4m41.77s CPU   4m43.60s WALL


   This run was terminated on:   0:19:50  26Dec2020            

=------------------------------------------------------------------------------=
   JOB DONE.
=------------------------------------------------------------------------------=
