
     Program PWSCF v.6.7MaX starts on 26Dec2020 at  0:13:36 

     This program is part of the open-source Quantum ESPRESSO suite
     for quantum simulation of materials; please cite
         "P. Giannozzi et al., J. Phys.:Condens. Matter 21 395502 (2009);
         "P. Giannozzi et al., J. Phys.:Condens. Matter 29 465901 (2017);
          URL http://www.quantum-espresso.org", 
     in publications or presentations arising from this work. More details at
     http://www.quantum-espresso.org/quote

     Serial multi-threaded version, running on    1 processor cores
     Reading input from Si.scf
     Message from routine read_cards :
     DEPRECATED: no units specified in ATOMIC_POSITIONS card
     Message from routine read_cards :
     ATOMIC_POSITIONS: units set to alat

     Current dimensions of program PWSCF are:
     Max number of different atomic species (ntypx) = 10
     Max number of k-points (npk) =  40000
     Max angular momentum in pseudopotentials (lmaxx) =  3
     Found symmetry operation: I + ( -0.5000 -0.5000  0.0000)
     This is a supercell, fractional translations are disabled

     G-vector sticks info
     --------------------
     sticks:   dense  smooth     PW     G-vecs:    dense   smooth      PW
     Sum        2537    1685    489                95193    51867    8121



     bravais-lattice index     =            1
     lattice parameter (alat)  =      10.2740  a.u.
     unit-cell volume          =    1084.4729 (a.u.)^3
     number of atoms/cell      =            8
     number of atomic types    =            1
     number of electrons       =        32.00
     number of Kohn-Sham states=           20
     kinetic-energy cutoff     =      50.0000  Ry
     charge density cutoff     =     300.0000  Ry
     scf convergence threshold =      1.0E-09
     mixing beta               =       0.7000
     number of iterations used =            8  plain     mixing
     Exchange-correlation= SLA  PW   PBE  PBE
                           (   1   4   3   4   0   0   0)

     celldm(1)=  10.274000  celldm(2)=   0.000000  celldm(3)=   0.000000
     celldm(4)=   0.000000  celldm(5)=   0.000000  celldm(6)=   0.000000

     crystal axes: (cart. coord. in units of alat)
               a(1) = (   1.000000   0.000000   0.000000 )  
               a(2) = (   0.000000   1.000000   0.000000 )  
               a(3) = (   0.000000   0.000000   1.000000 )  

     reciprocal axes: (cart. coord. in units 2 pi/alat)
               b(1) = (  1.000000  0.000000  0.000000 )  
               b(2) = (  0.000000  1.000000  0.000000 )  
               b(3) = (  0.000000  0.000000  1.000000 )  


     PseudoPot. # 1 for Si read from file:
     ../../ppt/si_pbe_v1.uspp.F.UPF
     MD5 check sum: a056efeee980c13900f22a371efd63c1
     Pseudo is Ultrasoft + core correction, Zval =  4.0
     Generated by new atomic code, or converted to UPF format
     Using radial grid of  899 points,  6 beta functions with: 
                l(1) =   0
                l(2) =   0
                l(3) =   1
                l(4) =   1
                l(5) =   2
                l(6) =   2
     Q(r) pseudized with  8 coefficients,  rinner =    0.900   0.900   0.900
                                                       0.900   0.900

     atomic species   valence    mass     pseudopotential
        Si             4.00    28.00000     Si( 1.00)

     24 Sym. Ops. (no inversion) found



   Cartesian axes

     site n.     atom                  positions (alat units)
         1           Si  tau(   1) = (   0.0000000   0.0000000   0.0000000  )
         2           Si  tau(   2) = (   0.5000000   0.5000000   0.0000000  )
         3           Si  tau(   3) = (   0.5000000   0.0000000   0.5000000  )
         4           Si  tau(   4) = (   0.0000000   0.5000000   0.5000000  )
         5           Si  tau(   5) = (   0.2500000   0.2500000   0.2500000  )
         6           Si  tau(   6) = (   0.7500000   0.7500000   0.2500000  )
         7           Si  tau(   7) = (   0.7500000   0.2500000   0.7500000  )
         8           Si  tau(   8) = (   0.2500000   0.7500000   0.7500000  )

     number of k points=    35  Marzari-Vanderbilt smearing, width (Ry)=  0.0200
                       cart. coord. in units 2pi/alat
        k(    1) = (   0.0000000   0.0000000   0.0000000), wk =   0.0039062
        k(    2) = (   0.0000000   0.0000000   0.1250000), wk =   0.0234375
        k(    3) = (   0.0000000   0.0000000   0.2500000), wk =   0.0234375
        k(    4) = (   0.0000000   0.0000000   0.3750000), wk =   0.0234375
        k(    5) = (   0.0000000   0.0000000  -0.5000000), wk =   0.0117188
        k(    6) = (   0.0000000   0.1250000   0.1250000), wk =   0.0468750
        k(    7) = (   0.0000000   0.1250000   0.2500000), wk =   0.0937500
        k(    8) = (   0.0000000   0.1250000   0.3750000), wk =   0.0937500
        k(    9) = (   0.0000000   0.1250000  -0.5000000), wk =   0.0468750
        k(   10) = (   0.0000000   0.2500000   0.2500000), wk =   0.0468750
        k(   11) = (   0.0000000   0.2500000   0.3750000), wk =   0.0937500
        k(   12) = (   0.0000000   0.2500000  -0.5000000), wk =   0.0468750
        k(   13) = (   0.0000000   0.3750000   0.3750000), wk =   0.0468750
        k(   14) = (   0.0000000   0.3750000  -0.5000000), wk =   0.0468750
        k(   15) = (   0.0000000  -0.5000000  -0.5000000), wk =   0.0117188
        k(   16) = (   0.1250000   0.1250000   0.1250000), wk =   0.0312500
        k(   17) = (   0.1250000   0.1250000   0.2500000), wk =   0.0937500
        k(   18) = (   0.1250000   0.1250000   0.3750000), wk =   0.0937500
        k(   19) = (   0.1250000   0.1250000  -0.5000000), wk =   0.0468750
        k(   20) = (   0.1250000   0.2500000   0.2500000), wk =   0.0937500
        k(   21) = (   0.1250000   0.2500000   0.3750000), wk =   0.1875000
        k(   22) = (   0.1250000   0.2500000  -0.5000000), wk =   0.0937500
        k(   23) = (   0.1250000   0.3750000   0.3750000), wk =   0.0937500
        k(   24) = (   0.1250000   0.3750000  -0.5000000), wk =   0.0937500
        k(   25) = (   0.1250000  -0.5000000  -0.5000000), wk =   0.0234375
        k(   26) = (   0.2500000   0.2500000   0.2500000), wk =   0.0312500
        k(   27) = (   0.2500000   0.2500000   0.3750000), wk =   0.0937500
        k(   28) = (   0.2500000   0.2500000  -0.5000000), wk =   0.0468750
        k(   29) = (   0.2500000   0.3750000   0.3750000), wk =   0.0937500
        k(   30) = (   0.2500000   0.3750000  -0.5000000), wk =   0.0937500
        k(   31) = (   0.2500000  -0.5000000  -0.5000000), wk =   0.0234375
        k(   32) = (   0.3750000   0.3750000   0.3750000), wk =   0.0312500
        k(   33) = (   0.3750000   0.3750000  -0.5000000), wk =   0.0468750
        k(   34) = (   0.3750000  -0.5000000  -0.5000000), wk =   0.0234375
        k(   35) = (  -0.5000000  -0.5000000  -0.5000000), wk =   0.0039062

     Dense  grid:    95193 G-vectors     FFT dimensions: (  60,  60,  60)

     Smooth grid:    51867 G-vectors     FFT dimensions: (  48,  48,  48)

     Estimated max dynamical RAM per process >     422.63 MB

     Initial potential from superposition of free atoms

     starting charge   31.99463, renormalised to   32.00000
     Starting wfcs are   32 randomized atomic wfcs

     total cpu time spent up to now is        4.2 secs

     Self-consistent Calculation

     iteration #  1     ecut=    50.00 Ry     beta= 0.70
     Davidson diagonalization with overlap
     ethr =  1.00E-02,  avg # of iterations =  3.1

     Threshold (ethr) on eigenvalues was too large:
     Diagonalizing with lowered threshold

     Davidson diagonalization with overlap
     ethr =  6.45E-04,  avg # of iterations =  1.5

     total cpu time spent up to now is       20.1 secs

     total energy              =     -76.76277813 Ry
     estimated scf accuracy    <       0.22057176 Ry

     iteration #  2     ecut=    50.00 Ry     beta= 0.70
     Davidson diagonalization with overlap
     ethr =  6.89E-04,  avg # of iterations =  1.0

     total cpu time spent up to now is       26.9 secs

     total energy              =     -76.77133115 Ry
     estimated scf accuracy    <       0.00948840 Ry

     iteration #  3     ecut=    50.00 Ry     beta= 0.70
     Davidson diagonalization with overlap
     ethr =  2.97E-05,  avg # of iterations =  6.5

     total cpu time spent up to now is       37.8 secs

     total energy              =     -76.77247948 Ry
     estimated scf accuracy    <       0.00016119 Ry

     iteration #  4     ecut=    50.00 Ry     beta= 0.70
     Davidson diagonalization with overlap
     ethr =  5.04E-07,  avg # of iterations =  6.3

     total cpu time spent up to now is       52.7 secs

     total energy              =     -76.77268022 Ry
     estimated scf accuracy    <       0.00000235 Ry

     iteration #  5     ecut=    50.00 Ry     beta= 0.70
     Davidson diagonalization with overlap
     ethr =  7.33E-09,  avg # of iterations =  5.7

     total cpu time spent up to now is       64.6 secs

     total energy              =     -76.77268378 Ry
     estimated scf accuracy    <       0.00000016 Ry

     iteration #  6     ecut=    50.00 Ry     beta= 0.70
     Davidson diagonalization with overlap
     ethr =  5.09E-10,  avg # of iterations =  2.6

     total cpu time spent up to now is       73.1 secs

     total energy              =     -76.77268382 Ry
     estimated scf accuracy    <       0.00000002 Ry

     iteration #  7     ecut=    50.00 Ry     beta= 0.70
     Davidson diagonalization with overlap
     ethr =  7.04E-11,  avg # of iterations =  2.4

     total cpu time spent up to now is       81.8 secs

     total energy              =     -76.77268382 Ry
     estimated scf accuracy    <          1.5E-09 Ry

     iteration #  8     ecut=    50.00 Ry     beta= 0.70
     Davidson diagonalization with overlap
     ethr =  4.65E-12,  avg # of iterations =  3.3

     total cpu time spent up to now is       91.0 secs

     End of self-consistent calculation

          k = 0.0000 0.0000 0.0000 (  6451 PWs)   bands (ev):

    -5.7789  -1.6483  -1.6483  -1.6483  -1.6483  -1.6483  -1.6483   3.3144
     3.3144   3.3144   3.3144   3.3144   3.3144   6.1564   6.1564   6.1564
     6.8803   6.8803   6.8803   6.8803

          k = 0.0000 0.0000 0.1250 (  6495 PWs)   bands (ev):

    -5.7108  -2.5690  -1.6264  -1.6264  -1.6264  -1.6264  -0.6466   3.1290
     3.1290   3.1290   3.1291   3.3760   3.3760   5.7341   5.8950   5.8950
     6.7469   7.1979   7.2381   7.2381

          k = 0.0000 0.0000 0.2500 (  6495 PWs)   bands (ev):

    -5.5069  -3.3923  -1.5712  -1.5712  -1.5712  -1.5712   0.4166   2.7545
     2.7545   2.7545   2.7545   3.5594   3.5594   4.8193   5.3535   5.3535
     6.7836   7.7100   8.1357   8.1357

          k = 0.0000 0.0000 0.3750 (  6503 PWs)   bands (ev):

    -5.1691  -4.1060  -1.5121  -1.5121  -1.5121  -1.5121   1.5192   2.4404
     2.4404   2.4404   2.4404   3.7514   3.8613   3.8613   4.7827   4.7827
     6.9737   7.7147   8.4186   9.3334

          k = 0.0000 0.0000-0.5000 (  6480 PWs)   bands (ev):

    -4.7005  -4.7005  -1.4863  -1.4863  -1.4863  -1.4863   2.3215   2.3215
     2.3215   2.3215   2.6388   2.6388   4.2740   4.2740   4.2740   4.2740
     7.2953   7.2953   9.2974   9.2974

          k = 0.0000 0.1250 0.1250 (  6495 PWs)   bands (ev):

    -5.6429  -2.5295  -2.5295  -1.7182  -1.5008  -0.6532  -0.6532   2.6424
     3.1548   3.1548   3.2418   3.2419   3.4232   5.1092   5.6328   6.0928
     7.0058   7.1238   7.1238   7.5299

          k = 0.0000 0.1250 0.2500 (  6493 PWs)   bands (ev):

    -5.4401  -3.3419  -2.4179  -1.8040  -1.3320  -0.6865   0.3633   2.2158
     2.7001   2.9870   3.3143   3.3468   3.4972   4.2651   5.0878   5.7339
     7.1724   7.4830   8.0110   8.0485

          k = 0.0000 0.1250 0.3750 (  6490 PWs)   bands (ev):

    -5.1041  -4.0485  -2.2548  -1.9179  -1.1315  -0.7752   1.3907   1.9890
     2.2749   2.8284   3.0804   3.3565   3.6015   3.8976   4.5144   5.0857
     7.3672   8.0957   8.4854   8.6850

          k = 0.0000 0.1250-0.5000 (  6450 PWs)   bands (ev):

    -4.6385  -4.6385  -2.0750  -2.0749  -0.9318  -0.9318   2.0144   2.0144
     2.3961   2.3961   2.8661   2.8661   4.0070   4.0071   4.4378   4.4378
     7.6862   7.6862   9.5215   9.5217

          k = 0.0000 0.2500 0.2500 (  6500 PWs)   bands (ev):

    -5.2404  -3.1947  -3.1947  -2.0625  -1.0596   0.1983   0.1983   1.8742
     2.8084   2.8084   3.4092   3.4092   3.4743   3.7400   4.5357   5.8638
     7.3723   8.1103   8.1103   8.8120

          k = 0.0000 0.2500 0.3750 (  6474 PWs)   bands (ev):

    -4.9102  -3.8787  -2.9637  -2.3595  -0.7458  -0.0714   1.0523   1.7872
     2.3113   2.6718   3.0651   3.4316   3.7616   3.9583   4.0112   5.4394
     7.9518   8.3042   8.9843   9.5050

          k = 0.0000 0.2500-0.5000 (  6452 PWs)   bands (ev):

    -4.4540  -4.4540  -2.6732  -2.6732  -0.4039  -0.4039   1.8705   1.8705
     1.9479   1.9479   3.4552   3.4552   3.5836   3.5836   4.7337   4.7337
     8.6076   8.6076   9.0299   9.0299

          k = 0.0000 0.3750 0.3750 (  6468 PWs)   bands (ev):

    -4.5908  -3.6044  -3.6044  -2.8139  -0.3290   0.6026   0.6026   1.8337
     1.9619   2.5242   2.5242   3.3823   4.1831   4.1831   4.2326   5.4232
     7.9416   9.1169   9.5098   9.5099

          k = 0.0000 0.3750-0.5000 (  6464 PWs)   bands (ev):

    -4.1521  -4.1521  -3.2410  -3.2410   0.1262   0.1262   1.2727   1.2727
     2.0943   2.0943   2.8900   2.8900   4.3230   4.3230   4.9317   4.9317
     8.5839   8.5839   9.2148   9.2148

          k = 0.0000-0.5000-0.5000 (  6496 PWs)   bands (ev):

    -3.7424  -3.7424  -3.7424  -3.7424   0.6832   0.6832   0.6832   0.6832
     2.4199   2.4199   2.4199   2.4199   4.8328   4.8328   4.8328   4.8328
     8.6096   8.6096   8.6096   8.6096

          k = 0.1250 0.1250 0.1250 (  6493 PWs)   bands (ev):

    -5.5755  -2.4983  -2.4983  -2.4983  -0.6652  -0.6652  -0.6652   2.7354
     2.7354   2.7354   3.4834   3.4834   3.4834   4.5594   5.8686   5.8686
     7.0639   7.0639   7.0639   8.1331

          k = 0.1250 0.1250 0.2500 (  6494 PWs)   bands (ev):

    -5.3737  -3.2951  -2.4168  -2.4168  -0.7055  -0.7055   0.2882   2.3391
     2.3391   3.0182   3.4225   3.4225   3.6627   3.7564   5.3791   5.6121
     7.2363   7.5538   7.5538   8.4834

          k = 0.1250 0.1250 0.3750 (  6485 PWs)   bands (ev):

    -5.0398  -3.9929  -2.3239  -2.3239  -0.7662  -0.7662   1.2199   2.1138
     2.1139   2.9357   3.2094   3.2094   3.4965   3.9566   4.8432   4.9172
     7.5162   8.3081   8.5519   8.5519

          k = 0.1250 0.1250-0.5000 (  6480 PWs)   bands (ev):

    -4.5775  -4.5775  -2.2810  -2.2810  -0.7988  -0.7988   2.0499   2.0499
     2.0997   2.0997   3.1040   3.1040   4.1540   4.1540   4.3561   4.3561
     7.8863   7.8863   9.8120   9.8125

          k = 0.1250 0.2500 0.2500 (  6495 PWs)   bands (ev):

    -5.1755  -3.1605  -3.1605  -2.4386  -0.7332   0.0743   0.0743   2.0754
     2.6967   2.6967   2.9876   3.6567   3.6567   3.7954   4.9777   5.7315
     7.4527   7.7598   7.7599   8.6384

          k = 0.1250 0.2500 0.3750 (  6469 PWs)   bands (ev):

    -4.8481  -3.8295  -2.9584  -2.5383  -0.6870  -0.2227   0.8088   2.0452
     2.2328   2.4322   3.2261   3.6064   3.8275   4.0726   4.4034   5.3378
     8.0250   8.0795   8.7456   8.7643

          k = 0.1250 0.2500-0.5000 (  6488 PWs)   bands (ev):

    -4.3966  -4.3966  -2.7296  -2.7296  -0.5063  -0.5063   1.5144   1.5144
     2.1949   2.1949   3.6865   3.6865   3.8147   3.8147   4.6758   4.6758
     8.4661   8.4661   9.0907   9.0907

          k = 0.1250 0.3750 0.3750 (  6473 PWs)   bands (ev):

    -4.5330  -3.5692  -3.5691  -2.8679  -0.4727   0.3245   0.3245   1.5390
     2.1796   2.8479   2.8479   3.8542   4.2349   4.2349   4.2765   5.3842
     8.0090   8.8675   9.0369   9.0369

          k = 0.1250 0.3750-0.5000 (  6464 PWs)   bands (ev):

    -4.1022  -4.1022  -3.2346  -3.2346  -0.1233  -0.1233   0.9029   0.9029
     2.4691   2.4691   3.3245   3.3245   4.3670   4.3670   4.9255   4.9255
     8.6304   8.6304   9.0700   9.0700

          k = 0.1250-0.5000-0.5000 (  6440 PWs)   bands (ev):

    -3.7069  -3.7069  -3.7069  -3.7069   0.3481   0.3481   0.3481   0.3481
     2.8563   2.8563   2.8563   2.8563   4.8504   4.8504   4.8504   4.8504
     8.6162   8.6162   8.6162   8.6162

          k = 0.2500 0.2500 0.2500 (  6469 PWs)   bands (ev):

    -4.9819  -3.0708  -3.0708  -3.0708  -0.2159  -0.2159  -0.2159   2.2370
     2.6360   2.6360   2.6360   3.9594   3.9594   3.9594   5.3990   5.3990
     7.6865   7.6865   7.6865   8.1756

          k = 0.2500 0.2500 0.3750 (  6453 PWs)   bands (ev):

    -4.6636  -3.6883  -2.9679  -2.9679  -0.4987  -0.4987   0.3125   1.5222
     2.6801   2.6801   3.4370   4.0297   4.0297   4.2245   4.9841   5.1105
     8.0414   8.2340   8.2340   8.3504

          k = 0.2500 0.2500-0.5000 (  6456 PWs)   bands (ev):

    -4.2278  -4.2278  -2.9202  -2.9202  -0.6158  -0.6158   0.8820   0.8820
     2.7185   2.7185   4.0064   4.0064   4.3271   4.3271   4.5755   4.5755
     8.4050   8.4050   9.2204   9.2204

          k = 0.2500 0.3750 0.3750 (  6475 PWs)   bands (ev):

    -4.3629  -3.4767  -3.4767  -3.0531  -0.6383  -0.1746  -0.1746   0.8516
     2.9618   3.4400   3.4400   4.3874   4.3874   4.4038   4.6248   5.2652
     8.1891   8.2359   8.5197   8.5197

          k = 0.2500 0.3750-0.5000 (  6462 PWs)   bands (ev):

    -3.9588  -3.9588  -3.2407  -3.2407  -0.5214  -0.5214   0.2792   0.2792
     3.2424   3.2424   4.1065   4.1065   4.4961   4.4961   4.8926   4.8926
     8.5502   8.5502   8.7055   8.7055

          k = 0.2500-0.5000-0.5000 (  6472 PWs)   bands (ev):

    -3.6138  -3.6138  -3.6138  -3.6138  -0.2065  -0.2065  -0.2065  -0.2064
     3.7025   3.7025   3.7025   3.7026   4.8944   4.8944   4.8944   4.8944
     8.5125   8.5125   8.5125   8.5125

          k = 0.3750 0.3750 0.3750 (  6470 PWs)   bands (ev):

    -4.0917  -3.3706  -3.3706  -3.3706  -0.5754  -0.5754  -0.5754   0.2233
     3.8830   3.8830   3.8830   4.5993   4.5993   4.5993   5.0724   5.0724
     7.8122   8.3496   8.3496   8.3496

          k = 0.3750 0.3750-0.5000 (  6486 PWs)   bands (ev):

    -3.7444  -3.7444  -3.3213  -3.3213  -0.7285  -0.7285  -0.2698  -0.2698
     4.0309   4.0310   4.7069   4.7069   4.7209   4.7209   4.8356   4.8356
     8.0768   8.0769   8.4446   8.4446

          k = 0.3750-0.5000-0.5000 (  6480 PWs)   bands (ev):

    -3.5069  -3.5069  -3.5069  -3.5069  -0.6338  -0.6338  -0.6338  -0.6338
     4.5453   4.5453   4.5453   4.5453   4.9407   4.9407   4.9407   4.9407
     8.0335   8.0335   8.0335   8.0335

          k =-0.5000-0.5000-0.5000 (  6488 PWs)   bands (ev):

    -3.4573  -3.4573  -3.4573  -3.4573  -0.7947  -0.7947  -0.7947  -0.7947
     4.9606   4.9606   4.9606   4.9606   4.9606   4.9607   4.9607   4.9607
     7.6843   7.6843   7.6843   7.6843

     the Fermi energy is     6.1414 ev

!    total energy              =     -76.77268382 Ry
     estimated scf accuracy    <          8.9E-11 Ry
     smearing contrib. (-TS)   =       0.00129614 Ry
     internal energy E=F+TS    =     -76.77397996 Ry

     The total energy is F=E-TS. E is the sum of the following terms:
     one-electron contribution =      20.33150709 Ry
     hartree contribution      =       4.47438929 Ry
     xc contribution           =     -34.46773407 Ry
     ewald contribution        =     -67.11214227 Ry

     convergence has been achieved in   8 iterations

     Writing output data file ../tmp/sisc.save/

     init_run     :      3.95s CPU      4.13s WALL (       1 calls)
     electrons    :     84.90s CPU     86.81s WALL (       1 calls)

     Called by init_run:
     wfcinit      :      3.29s CPU      3.36s WALL (       1 calls)
     potinit      :      0.09s CPU      0.10s WALL (       1 calls)
     hinit0       :      0.19s CPU      0.19s WALL (       1 calls)

     Called by electrons:
     c_bands      :     68.77s CPU     69.07s WALL (       9 calls)
     sum_band     :     12.65s CPU     13.50s WALL (       9 calls)
     v_of_rho     :      0.74s CPU      0.79s WALL (       9 calls)
     newd         :      2.99s CPU      3.79s WALL (       9 calls)
     mix_rho      :      0.08s CPU      0.08s WALL (       9 calls)

     Called by c_bands:
     init_us_2    :      2.24s CPU      2.27s WALL (     665 calls)
     cegterg      :     58.85s CPU     59.12s WALL (     315 calls)

     Called by *egterg:
     cdiaghg      :      0.52s CPU      0.52s WALL (    1408 calls)
     h_psi        :     48.06s CPU     48.33s WALL (    1478 calls)
     s_psi        :      5.72s CPU      5.75s WALL (    1478 calls)
     g_psi        :      0.36s CPU      0.36s WALL (    1128 calls)

     Called by h_psi:
     h_psi:calbec :      5.68s CPU      5.70s WALL (    1478 calls)
     vloc_psi     :     36.23s CPU     36.44s WALL (    1478 calls)
     add_vuspsi   :      5.79s CPU      5.81s WALL (    1478 calls)

     General routines
     calbec       :      7.34s CPU      7.37s WALL (    1793 calls)
     fft          :      0.21s CPU      0.21s WALL (     116 calls)
     ffts         :      0.02s CPU      0.02s WALL (      18 calls)
     fftw         :     36.12s CPU     36.33s WALL (   45232 calls)
     interpolate  :      0.03s CPU      0.03s WALL (       9 calls)


     PWSCF        :   1m28.97s CPU   1m31.13s WALL


   This run was terminated on:   0:15: 7  26Dec2020            

=------------------------------------------------------------------------------=
   JOB DONE.
=------------------------------------------------------------------------------=
