
     Program PWSCF v.5.0.2 (svn rev. 9656) starts on 15Feb2014 at 12:34:33 

     This program is part of the open-source Quantum ESPRESSO suite
     for quantum simulation of materials; please cite
         "P. Giannozzi et al., J. Phys.:Condens. Matter 21 395502 (2009);
          URL http://www.quantum-espresso.org", 
     in publications or presentations arising from this work. More details at
     http://www.quantum-espresso.org/quote.php

     Parallel version (MPI), running on     1 processors

     Current dimensions of program PWSCF are:
     Max number of different atomic species (ntypx) = 10
     Max number of k-points (npk) =  40000
     Max angular momentum in pseudopotentials (lmaxx) =  3
     Waiting for input...
     Reading input from standard input

     Atomic positions and unit cell read from directory:
     ../tmp/Fe.save/


     Subspace diagonalization in iterative solution of the eigenvalue problem:
     a serial algorithm will be used


     G-vector sticks info
     --------------------
     sticks:   dense  smooth     PW     G-vecs:    dense   smooth      PW
     Sum         487     291     99                 6963     3151     627



     bravais-lattice index     =            3
     lattice parameter (alat)  =       5.4200  a.u.
     unit-cell volume          =      79.6100 (a.u.)^3
     number of atoms/cell      =            1
     number of atomic types    =            1
     number of electrons       =        16.00
     number of Kohn-Sham states=           12
     kinetic-energy cutoff     =      45.0000  Ry
     charge density cutoff     =     300.0000  Ry
     Exchange-correlation      = SLA  PW   PBE  PBE ( 1 4 3 4 0)
     EXX-fraction              =        0.00

     celldm(1)=   5.420000  celldm(2)=   0.000000  celldm(3)=   0.000000
     celldm(4)=   0.000000  celldm(5)=   0.000000  celldm(6)=   0.000000

     crystal axes: (cart. coord. in units of alat)
               a(1) = (   0.500000   0.500000   0.500000 )  
               a(2) = (  -0.500000   0.500000   0.500000 )  
               a(3) = (  -0.500000  -0.500000   0.500000 )  

     reciprocal axes: (cart. coord. in units 2 pi/alat)
               b(1) = (  1.000000  0.000000  1.000000 )  
               b(2) = ( -1.000000  1.000000  0.000000 )  
               b(3) = (  0.000000 -1.000000  1.000000 )  


     PseudoPot. # 1 for Fe read from file:
     ../pps/fe_pbe_v1.uspp.F.UPF
     MD5 check sum: e6601fc8106164ab3104f788edde3ce3
     Pseudo is Ultrasoft + core correction, Zval = 16.0
     Generated by new atomic code, or converted to UPF format
     Using radial grid of  861 points,  6 beta functions with: 
                l(1) =   0
                l(2) =   0
                l(3) =   1
                l(4) =   1
                l(5) =   2
                l(6) =   2
     Q(r) pseudized with  8 coefficients,  rinner =    1.200   1.200   1.200
                                                       1.200   1.200

     atomic species   valence    mass     pseudopotential
        Fe            16.00    55.84500     Fe( 1.00)

     Starting magnetic structure 
     atomic species   magnetization
        Fe           0.500

     48 Sym. Ops., with inversion, found


                                    s                        frac. trans.

      isym =  1     identity                                     

 cryst.   s( 1) = (     1          0          0      )
                  (     0          1          0      )
                  (     0          0          1      )

 cart.    s( 1) = (  1.0000000  0.0000000  0.0000000 )
                  (  0.0000000  1.0000000  0.0000000 )
                  (  0.0000000  0.0000000  1.0000000 )


      isym =  2     180 deg rotation - cart. axis [0,0,1]        

 cryst.   s( 2) = (     0          0          1      )
                  (     1         -1          1      )
                  (     1          0          0      )

 cart.    s( 2) = ( -1.0000000  0.0000000  0.0000000 )
                  (  0.0000000 -1.0000000  0.0000000 )
                  (  0.0000000  0.0000000  1.0000000 )


      isym =  3     180 deg rotation - cart. axis [0,1,0]        

 cryst.   s( 3) = (    -1          1         -1      )
                  (     0          0         -1      )
                  (     0         -1          0      )

 cart.    s( 3) = ( -1.0000000  0.0000000  0.0000000 )
                  (  0.0000000  1.0000000  0.0000000 )
                  (  0.0000000  0.0000000 -1.0000000 )


      isym =  4     180 deg rotation - cart. axis [1,0,0]        

 cryst.   s( 4) = (     0         -1          0      )
                  (    -1          0          0      )
                  (    -1          1         -1      )

 cart.    s( 4) = (  1.0000000  0.0000000  0.0000000 )
                  (  0.0000000 -1.0000000  0.0000000 )
                  (  0.0000000  0.0000000 -1.0000000 )


      isym =  5     180 deg rotation - cart. axis [1,1,0]        

 cryst.   s( 5) = (     0          0         -1      )
                  (     0         -1          0      )
                  (    -1          0          0      )

 cart.    s( 5) = (  0.0000000  1.0000000  0.0000000 )
                  (  1.0000000  0.0000000  0.0000000 )
                  (  0.0000000  0.0000000 -1.0000000 )


      isym =  6     180 deg rotation - cart. axis [1,-1,0]       

 cryst.   s( 6) = (    -1          0          0      )
                  (    -1          1         -1      )
                  (     0          0         -1      )

 cart.    s( 6) = (  0.0000000 -1.0000000  0.0000000 )
                  ( -1.0000000  0.0000000  0.0000000 )
                  (  0.0000000  0.0000000 -1.0000000 )


      isym =  7      90 deg rotation - cart. axis [0,0,-1]       

 cryst.   s( 7) = (     1         -1          1      )
                  (     1          0          0      )
                  (     0          1          0      )

 cart.    s( 7) = (  0.0000000  1.0000000  0.0000000 )
                  ( -1.0000000  0.0000000  0.0000000 )
                  (  0.0000000  0.0000000  1.0000000 )


      isym =  8      90 deg rotation - cart. axis [0,0,1]        

 cryst.   s( 8) = (     0          1          0      )
                  (     0          0          1      )
                  (     1         -1          1      )

 cart.    s( 8) = (  0.0000000 -1.0000000  0.0000000 )
                  (  1.0000000  0.0000000  0.0000000 )
                  (  0.0000000  0.0000000  1.0000000 )


      isym =  9     180 deg rotation - cart. axis [1,0,1]        

 cryst.   s( 9) = (     1         -1          1      )
                  (     0         -1          0      )
                  (     0          0         -1      )

 cart.    s( 9) = (  0.0000000  0.0000000  1.0000000 )
                  (  0.0000000 -1.0000000  0.0000000 )
                  (  1.0000000  0.0000000  0.0000000 )


      isym = 10     180 deg rotation - cart. axis [-1,0,1]       

 cryst.   s(10) = (    -1          0          0      )
                  (     0          0          1      )
                  (     0          1          0      )

 cart.    s(10) = (  0.0000000  0.0000000 -1.0000000 )
                  (  0.0000000 -1.0000000  0.0000000 )
                  ( -1.0000000  0.0000000  0.0000000 )


      isym = 11      90 deg rotation - cart. axis [0,1,0]        

 cryst.   s(11) = (     0          0         -1      )
                  (     1          0          0      )
                  (     1         -1          1      )

 cart.    s(11) = (  0.0000000  0.0000000  1.0000000 )
                  (  0.0000000  1.0000000  0.0000000 )
                  ( -1.0000000  0.0000000  0.0000000 )


      isym = 12      90 deg rotation - cart. axis [0,-1,0]       

 cryst.   s(12) = (     0          1          0      )
                  (    -1          1         -1      )
                  (    -1          0          0      )

 cart.    s(12) = (  0.0000000  0.0000000 -1.0000000 )
                  (  0.0000000  1.0000000  0.0000000 )
                  (  1.0000000  0.0000000  0.0000000 )


      isym = 13     180 deg rotation - cart. axis [0,1,1]        

 cryst.   s(13) = (     0          1          0      )
                  (     1          0          0      )
                  (     0          0         -1      )

 cart.    s(13) = ( -1.0000000  0.0000000  0.0000000 )
                  (  0.0000000  0.0000000  1.0000000 )
                  (  0.0000000  1.0000000  0.0000000 )


      isym = 14     180 deg rotation - cart. axis [0,1,-1]       

 cryst.   s(14) = (    -1          0          0      )
                  (     0         -1          0      )
                  (     1         -1          1      )

 cart.    s(14) = ( -1.0000000  0.0000000  0.0000000 )
                  (  0.0000000  0.0000000 -1.0000000 )
                  (  0.0000000 -1.0000000  0.0000000 )


      isym = 15      90 deg rotation - cart. axis [-1,0,0]       

 cryst.   s(15) = (     0          0         -1      )
                  (    -1          1         -1      )
                  (     0          1          0      )

 cart.    s(15) = (  1.0000000  0.0000000  0.0000000 )
                  (  0.0000000  0.0000000  1.0000000 )
                  (  0.0000000 -1.0000000  0.0000000 )


      isym = 16      90 deg rotation - cart. axis [1,0,0]        

 cryst.   s(16) = (     1         -1          1      )
                  (     0          0          1      )
                  (    -1          0          0      )

 cart.    s(16) = (  1.0000000  0.0000000  0.0000000 )
                  (  0.0000000  0.0000000 -1.0000000 )
                  (  0.0000000  1.0000000  0.0000000 )


      isym = 17     120 deg rotation - cart. axis [-1,-1,-1]     

 cryst.   s(17) = (     1          0          0      )
                  (     0          0         -1      )
                  (    -1          1         -1      )

 cart.    s(17) = (  0.0000000  1.0000000  0.0000000 )
                  (  0.0000000  0.0000000  1.0000000 )
                  (  1.0000000  0.0000000  0.0000000 )


      isym = 18     120 deg rotation - cart. axis [-1,1,1]       

 cryst.   s(18) = (    -1          1         -1      )
                  (     0          1          0      )
                  (     1          0          0      )

 cart.    s(18) = (  0.0000000 -1.0000000  0.0000000 )
                  (  0.0000000  0.0000000  1.0000000 )
                  ( -1.0000000  0.0000000  0.0000000 )


      isym = 19     120 deg rotation - cart. axis [1,1,-1]       

 cryst.   s(19) = (     0         -1          0      )
                  (     1         -1          1      )
                  (     0          0          1      )

 cart.    s(19) = (  0.0000000  1.0000000  0.0000000 )
                  (  0.0000000  0.0000000 -1.0000000 )
                  ( -1.0000000  0.0000000  0.0000000 )


      isym = 20     120 deg rotation - cart. axis [1,-1,1]       

 cryst.   s(20) = (     0          0          1      )
                  (    -1          0          0      )
                  (     0         -1          0      )

 cart.    s(20) = (  0.0000000 -1.0000000  0.0000000 )
                  (  0.0000000  0.0000000 -1.0000000 )
                  (  1.0000000  0.0000000  0.0000000 )


      isym = 21     120 deg rotation - cart. axis [1,1,1]        

 cryst.   s(21) = (     1          0          0      )
                  (     1         -1          1      )
                  (     0         -1          0      )

 cart.    s(21) = (  0.0000000  0.0000000  1.0000000 )
                  (  1.0000000  0.0000000  0.0000000 )
                  (  0.0000000  1.0000000  0.0000000 )


      isym = 22     120 deg rotation - cart. axis [-1,1,-1]      

 cryst.   s(22) = (     0         -1          0      )
                  (     0          0         -1      )
                  (     1          0          0      )

 cart.    s(22) = (  0.0000000  0.0000000  1.0000000 )
                  ( -1.0000000  0.0000000  0.0000000 )
                  (  0.0000000 -1.0000000  0.0000000 )


      isym = 23     120 deg rotation - cart. axis [1,-1,-1]      

 cryst.   s(23) = (     0          0          1      )
                  (     0          1          0      )
                  (    -1          1         -1      )

 cart.    s(23) = (  0.0000000  0.0000000 -1.0000000 )
                  ( -1.0000000  0.0000000  0.0000000 )
                  (  0.0000000  1.0000000  0.0000000 )


      isym = 24     120 deg rotation - cart. axis [-1,-1,1]      

 cryst.   s(24) = (    -1          1         -1      )
                  (    -1          0          0      )
                  (     0          0          1      )

 cart.    s(24) = (  0.0000000  0.0000000 -1.0000000 )
                  (  1.0000000  0.0000000  0.0000000 )
                  (  0.0000000 -1.0000000  0.0000000 )


      isym = 25     inversion                                    

 cryst.   s(25) = (    -1          0          0      )
                  (     0         -1          0      )
                  (     0          0         -1      )

 cart.    s(25) = ( -1.0000000  0.0000000  0.0000000 )
                  (  0.0000000 -1.0000000  0.0000000 )
                  (  0.0000000  0.0000000 -1.0000000 )


      isym = 26     inv. 180 deg rotation - cart. axis [0,0,1]   

 cryst.   s(26) = (     0          0         -1      )
                  (    -1          1         -1      )
                  (    -1          0          0      )

 cart.    s(26) = (  1.0000000  0.0000000  0.0000000 )
                  (  0.0000000  1.0000000  0.0000000 )
                  (  0.0000000  0.0000000 -1.0000000 )


      isym = 27     inv. 180 deg rotation - cart. axis [0,1,0]   

 cryst.   s(27) = (     1         -1          1      )
                  (     0          0          1      )
                  (     0          1          0      )

 cart.    s(27) = (  1.0000000  0.0000000  0.0000000 )
                  (  0.0000000 -1.0000000  0.0000000 )
                  (  0.0000000  0.0000000  1.0000000 )


      isym = 28     inv. 180 deg rotation - cart. axis [1,0,0]   

 cryst.   s(28) = (     0          1          0      )
                  (     1          0          0      )
                  (     1         -1          1      )

 cart.    s(28) = ( -1.0000000  0.0000000  0.0000000 )
                  (  0.0000000  1.0000000  0.0000000 )
                  (  0.0000000  0.0000000  1.0000000 )


      isym = 29     inv. 180 deg rotation - cart. axis [1,1,0]   

 cryst.   s(29) = (     0          0          1      )
                  (     0          1          0      )
                  (     1          0          0      )

 cart.    s(29) = (  0.0000000 -1.0000000  0.0000000 )
                  ( -1.0000000  0.0000000  0.0000000 )
                  (  0.0000000  0.0000000  1.0000000 )


      isym = 30     inv. 180 deg rotation - cart. axis [1,-1,0]  

 cryst.   s(30) = (     1          0          0      )
                  (     1         -1          1      )
                  (     0          0          1      )

 cart.    s(30) = (  0.0000000  1.0000000  0.0000000 )
                  (  1.0000000  0.0000000  0.0000000 )
                  (  0.0000000  0.0000000  1.0000000 )


      isym = 31     inv.  90 deg rotation - cart. axis [0,0,-1]  

 cryst.   s(31) = (    -1          1         -1      )
                  (    -1          0          0      )
                  (     0         -1          0      )

 cart.    s(31) = (  0.0000000 -1.0000000  0.0000000 )
                  (  1.0000000  0.0000000  0.0000000 )
                  (  0.0000000  0.0000000 -1.0000000 )


      isym = 32     inv.  90 deg rotation - cart. axis [0,0,1]   

 cryst.   s(32) = (     0         -1          0      )
                  (     0          0         -1      )
                  (    -1          1         -1      )

 cart.    s(32) = (  0.0000000  1.0000000  0.0000000 )
                  ( -1.0000000  0.0000000  0.0000000 )
                  (  0.0000000  0.0000000 -1.0000000 )


      isym = 33     inv. 180 deg rotation - cart. axis [1,0,1]   

 cryst.   s(33) = (    -1          1         -1      )
                  (     0          1          0      )
                  (     0          0          1      )

 cart.    s(33) = (  0.0000000  0.0000000 -1.0000000 )
                  (  0.0000000  1.0000000  0.0000000 )
                  ( -1.0000000  0.0000000  0.0000000 )


      isym = 34     inv. 180 deg rotation - cart. axis [-1,0,1]  

 cryst.   s(34) = (     1          0          0      )
                  (     0          0         -1      )
                  (     0         -1          0      )

 cart.    s(34) = (  0.0000000  0.0000000  1.0000000 )
                  (  0.0000000  1.0000000  0.0000000 )
                  (  1.0000000  0.0000000  0.0000000 )


      isym = 35     inv.  90 deg rotation - cart. axis [0,1,0]   

 cryst.   s(35) = (     0          0          1      )
                  (    -1          0          0      )
                  (    -1          1         -1      )

 cart.    s(35) = (  0.0000000  0.0000000 -1.0000000 )
                  (  0.0000000 -1.0000000  0.0000000 )
                  (  1.0000000  0.0000000  0.0000000 )


      isym = 36     inv.  90 deg rotation - cart. axis [0,-1,0]  

 cryst.   s(36) = (     0         -1          0      )
                  (     1         -1          1      )
                  (     1          0          0      )

 cart.    s(36) = (  0.0000000  0.0000000  1.0000000 )
                  (  0.0000000 -1.0000000  0.0000000 )
                  ( -1.0000000  0.0000000  0.0000000 )


      isym = 37     inv. 180 deg rotation - cart. axis [0,1,1]   

 cryst.   s(37) = (     0         -1          0      )
                  (    -1          0          0      )
                  (     0          0          1      )

 cart.    s(37) = (  1.0000000  0.0000000  0.0000000 )
                  (  0.0000000  0.0000000 -1.0000000 )
                  (  0.0000000 -1.0000000  0.0000000 )


      isym = 38     inv. 180 deg rotation - cart. axis [0,1,-1]  

 cryst.   s(38) = (     1          0          0      )
                  (     0          1          0      )
                  (    -1          1         -1      )

 cart.    s(38) = (  1.0000000  0.0000000  0.0000000 )
                  (  0.0000000  0.0000000  1.0000000 )
                  (  0.0000000  1.0000000  0.0000000 )


      isym = 39     inv.  90 deg rotation - cart. axis [-1,0,0]  

 cryst.   s(39) = (     0          0          1      )
                  (     1         -1          1      )
                  (     0         -1          0      )

 cart.    s(39) = ( -1.0000000  0.0000000  0.0000000 )
                  (  0.0000000  0.0000000 -1.0000000 )
                  (  0.0000000  1.0000000  0.0000000 )


      isym = 40     inv.  90 deg rotation - cart. axis [1,0,0]   

 cryst.   s(40) = (    -1          1         -1      )
                  (     0          0         -1      )
                  (     1          0          0      )

 cart.    s(40) = ( -1.0000000  0.0000000  0.0000000 )
                  (  0.0000000  0.0000000  1.0000000 )
                  (  0.0000000 -1.0000000  0.0000000 )


      isym = 41     inv. 120 deg rotation - cart. axis [-1,-1,-1]

 cryst.   s(41) = (    -1          0          0      )
                  (     0          0          1      )
                  (     1         -1          1      )

 cart.    s(41) = (  0.0000000 -1.0000000  0.0000000 )
                  (  0.0000000  0.0000000 -1.0000000 )
                  ( -1.0000000  0.0000000  0.0000000 )


      isym = 42     inv. 120 deg rotation - cart. axis [-1,1,1]  

 cryst.   s(42) = (     1         -1          1      )
                  (     0         -1          0      )
                  (    -1          0          0      )

 cart.    s(42) = (  0.0000000  1.0000000  0.0000000 )
                  (  0.0000000  0.0000000 -1.0000000 )
                  (  1.0000000  0.0000000  0.0000000 )


      isym = 43     inv. 120 deg rotation - cart. axis [1,1,-1]  

 cryst.   s(43) = (     0          1          0      )
                  (    -1          1         -1      )
                  (     0          0         -1      )

 cart.    s(43) = (  0.0000000 -1.0000000  0.0000000 )
                  (  0.0000000  0.0000000  1.0000000 )
                  (  1.0000000  0.0000000  0.0000000 )


      isym = 44     inv. 120 deg rotation - cart. axis [1,-1,1]  

 cryst.   s(44) = (     0          0         -1      )
                  (     1          0          0      )
                  (     0          1          0      )

 cart.    s(44) = (  0.0000000  1.0000000  0.0000000 )
                  (  0.0000000  0.0000000  1.0000000 )
                  ( -1.0000000  0.0000000  0.0000000 )


      isym = 45     inv. 120 deg rotation - cart. axis [1,1,1]   

 cryst.   s(45) = (    -1          0          0      )
                  (    -1          1         -1      )
                  (     0          1          0      )

 cart.    s(45) = (  0.0000000  0.0000000 -1.0000000 )
                  ( -1.0000000  0.0000000  0.0000000 )
                  (  0.0000000 -1.0000000  0.0000000 )


      isym = 46     inv. 120 deg rotation - cart. axis [-1,1,-1] 

 cryst.   s(46) = (     0          1          0      )
                  (     0          0          1      )
                  (    -1          0          0      )

 cart.    s(46) = (  0.0000000  0.0000000 -1.0000000 )
                  (  1.0000000  0.0000000  0.0000000 )
                  (  0.0000000  1.0000000  0.0000000 )


      isym = 47     inv. 120 deg rotation - cart. axis [1,-1,-1] 

 cryst.   s(47) = (     0          0         -1      )
                  (     0         -1          0      )
                  (     1         -1          1      )

 cart.    s(47) = (  0.0000000  0.0000000  1.0000000 )
                  (  1.0000000  0.0000000  0.0000000 )
                  (  0.0000000 -1.0000000  0.0000000 )


      isym = 48     inv. 120 deg rotation - cart. axis [-1,-1,1] 

 cryst.   s(48) = (     1         -1          1      )
                  (     1          0          0      )
                  (     0          0         -1      )

 cart.    s(48) = (  0.0000000  0.0000000  1.0000000 )
                  ( -1.0000000  0.0000000  0.0000000 )
                  (  0.0000000  1.0000000  0.0000000 )


     point group O_h (m-3m) 
     there are 10 classes
     the character table:

       E     8C3   6C2'  6C4   3C2   i     6S4   8S6   3s_h  6s_d 
A_1g   1.00  1.00  1.00  1.00  1.00  1.00  1.00  1.00  1.00  1.00
A_2g   1.00  1.00 -1.00 -1.00  1.00  1.00 -1.00  1.00  1.00 -1.00
E_g    2.00 -1.00  0.00  0.00  2.00  2.00  0.00 -1.00  2.00  0.00
T_1g   3.00  0.00 -1.00  1.00 -1.00  3.00  1.00  0.00 -1.00 -1.00
T_2g   3.00  0.00  1.00 -1.00 -1.00  3.00 -1.00  0.00 -1.00  1.00
A_1u   1.00  1.00  1.00  1.00  1.00 -1.00 -1.00 -1.00 -1.00 -1.00
A_2u   1.00  1.00 -1.00 -1.00  1.00 -1.00  1.00 -1.00 -1.00  1.00
E_u    2.00 -1.00  0.00  0.00  2.00 -2.00  0.00  1.00 -2.00  0.00
T_1u   3.00  0.00 -1.00  1.00 -1.00 -3.00 -1.00  0.00  1.00  1.00
T_2u   3.00  0.00  1.00 -1.00 -1.00 -3.00  1.00  0.00  1.00 -1.00

     the symmetry operations in each class:
     E        1
     3C2      2    4    3
     6C2'     5    6   14   13   10    9
     6C4      7    8   15   16   12   11
     8C3     17   19   20   18   24   21   22   23
     i       25
     3s_h    26   28   27
     6s_d    29   30   38   37   34   33
     6S4     31   32   39   40   36   35
     8S6     41   43   44   42   48   45   46   47

   Cartesian axes

     site n.     atom                  positions (alat units)
         1           Fe  tau(   1) = (   0.0000000   0.0000000   0.0000000  )

   Crystallographic axes

     site n.     atom                  positions (cryst. coord.)
         1           Fe  tau(   1) = (  0.0000000  0.0000000  0.0000000  )

     number of k points=   122  Methfessel-Paxton smearing, width (Ry)=  0.0400
                       cart. coord. in units 2pi/alat
        k(    1) = (   0.0000000   0.0000000   0.0000000), wk =   0.0163934
        k(    2) = (  -0.0250000   0.0250000   0.0250000), wk =   0.0163934
        k(    3) = (  -0.0500000   0.0500000   0.0500000), wk =   0.0163934
        k(    4) = (  -0.0750000   0.0750000   0.0750000), wk =   0.0163934
        k(    5) = (  -0.1000000   0.1000000   0.1000000), wk =   0.0163934
        k(    6) = (  -0.1250000   0.1250000   0.1250000), wk =   0.0163934
        k(    7) = (  -0.1500000   0.1500000   0.1500000), wk =   0.0163934
        k(    8) = (  -0.1750000   0.1750000   0.1750000), wk =   0.0163934
        k(    9) = (  -0.2000000   0.2000000   0.2000000), wk =   0.0163934
        k(   10) = (  -0.2250000   0.2250000   0.2250000), wk =   0.0163934
        k(   11) = (  -0.2500000   0.2500000   0.2500000), wk =   0.0163934
        k(   12) = (  -0.2750000   0.2750000   0.2750000), wk =   0.0163934
        k(   13) = (  -0.3000000   0.3000000   0.3000000), wk =   0.0163934
        k(   14) = (  -0.3250000   0.3250000   0.3250000), wk =   0.0163934
        k(   15) = (  -0.3500000   0.3500000   0.3500000), wk =   0.0163934
        k(   16) = (  -0.3750000   0.3750000   0.3750000), wk =   0.0163934
        k(   17) = (  -0.4000000   0.4000000   0.4000000), wk =   0.0163934
        k(   18) = (  -0.4250000   0.4250000   0.4250000), wk =   0.0163934
        k(   19) = (  -0.4500000   0.4500000   0.4500000), wk =   0.0163934
        k(   20) = (  -0.4750000   0.4750000   0.4750000), wk =   0.0163934
        k(   21) = (  -0.5000000   0.5000000   0.5000000), wk =   0.0163934
        k(   22) = (  -0.4750000   0.4750000   0.5000000), wk =   0.0163934
        k(   23) = (  -0.4500000   0.4500000   0.5000000), wk =   0.0163934
        k(   24) = (  -0.4250000   0.4250000   0.5000000), wk =   0.0163934
        k(   25) = (  -0.4000000   0.4000000   0.5000000), wk =   0.0163934
        k(   26) = (  -0.3750000   0.3750000   0.5000000), wk =   0.0163934
        k(   27) = (  -0.3500000   0.3500000   0.5000000), wk =   0.0163934
        k(   28) = (  -0.3250000   0.3250000   0.5000000), wk =   0.0163934
        k(   29) = (  -0.3000000   0.3000000   0.5000000), wk =   0.0163934
        k(   30) = (  -0.2750000   0.2750000   0.5000000), wk =   0.0163934
        k(   31) = (  -0.2500000   0.2500000   0.5000000), wk =   0.0163934
        k(   32) = (  -0.2250000   0.2250000   0.5000000), wk =   0.0163934
        k(   33) = (  -0.2000000   0.2000000   0.5000000), wk =   0.0163934
        k(   34) = (  -0.1750000   0.1750000   0.5000000), wk =   0.0163934
        k(   35) = (  -0.1500000   0.1500000   0.5000000), wk =   0.0163934
        k(   36) = (  -0.1250000   0.1250000   0.5000000), wk =   0.0163934
        k(   37) = (  -0.1000000   0.1000000   0.5000000), wk =   0.0163934
        k(   38) = (  -0.0750000   0.0750000   0.5000000), wk =   0.0163934
        k(   39) = (  -0.0500000   0.0500000   0.5000000), wk =   0.0163934
        k(   40) = (  -0.0250000   0.0250000   0.5000000), wk =   0.0163934
        k(   41) = (   0.0000000   0.0000000   0.5000000), wk =   0.0163934
        k(   42) = (   0.0125000   0.0125000   0.4875000), wk =   0.0163934
        k(   43) = (   0.0250000   0.0250000   0.4750000), wk =   0.0163934
        k(   44) = (   0.0375000   0.0375000   0.4625000), wk =   0.0163934
        k(   45) = (   0.0500000   0.0500000   0.4500000), wk =   0.0163934
        k(   46) = (   0.0625000   0.0625000   0.4375000), wk =   0.0163934
        k(   47) = (   0.0750000   0.0750000   0.4250000), wk =   0.0163934
        k(   48) = (   0.0875000   0.0875000   0.4125000), wk =   0.0163934
        k(   49) = (   0.1000000   0.1000000   0.4000000), wk =   0.0163934
        k(   50) = (   0.1125000   0.1125000   0.3875000), wk =   0.0163934
        k(   51) = (   0.1250000   0.1250000   0.3750000), wk =   0.0163934
        k(   52) = (   0.1375000   0.1375000   0.3625000), wk =   0.0163934
        k(   53) = (   0.1500000   0.1500000   0.3500000), wk =   0.0163934
        k(   54) = (   0.1625000   0.1625000   0.3375000), wk =   0.0163934
        k(   55) = (   0.1750000   0.1750000   0.3250000), wk =   0.0163934
        k(   56) = (   0.1875000   0.1875000   0.3125000), wk =   0.0163934
        k(   57) = (   0.2000000   0.2000000   0.3000000), wk =   0.0163934
        k(   58) = (   0.2125000   0.2125000   0.2875000), wk =   0.0163934
        k(   59) = (   0.2250000   0.2250000   0.2750000), wk =   0.0163934
        k(   60) = (   0.2375000   0.2375000   0.2625000), wk =   0.0163934
        k(   61) = (   0.2500000   0.2500000   0.2500000), wk =   0.0163934
        k(   62) = (   0.0000000   0.0000000   0.0000000), wk =   0.0163934
        k(   63) = (  -0.0250000   0.0250000   0.0250000), wk =   0.0163934
        k(   64) = (  -0.0500000   0.0500000   0.0500000), wk =   0.0163934
        k(   65) = (  -0.0750000   0.0750000   0.0750000), wk =   0.0163934
        k(   66) = (  -0.1000000   0.1000000   0.1000000), wk =   0.0163934
        k(   67) = (  -0.1250000   0.1250000   0.1250000), wk =   0.0163934
        k(   68) = (  -0.1500000   0.1500000   0.1500000), wk =   0.0163934
        k(   69) = (  -0.1750000   0.1750000   0.1750000), wk =   0.0163934
        k(   70) = (  -0.2000000   0.2000000   0.2000000), wk =   0.0163934
        k(   71) = (  -0.2250000   0.2250000   0.2250000), wk =   0.0163934
        k(   72) = (  -0.2500000   0.2500000   0.2500000), wk =   0.0163934
        k(   73) = (  -0.2750000   0.2750000   0.2750000), wk =   0.0163934
        k(   74) = (  -0.3000000   0.3000000   0.3000000), wk =   0.0163934
        k(   75) = (  -0.3250000   0.3250000   0.3250000), wk =   0.0163934
        k(   76) = (  -0.3500000   0.3500000   0.3500000), wk =   0.0163934
        k(   77) = (  -0.3750000   0.3750000   0.3750000), wk =   0.0163934
        k(   78) = (  -0.4000000   0.4000000   0.4000000), wk =   0.0163934
        k(   79) = (  -0.4250000   0.4250000   0.4250000), wk =   0.0163934
        k(   80) = (  -0.4500000   0.4500000   0.4500000), wk =   0.0163934
        k(   81) = (  -0.4750000   0.4750000   0.4750000), wk =   0.0163934
        k(   82) = (  -0.5000000   0.5000000   0.5000000), wk =   0.0163934
        k(   83) = (  -0.4750000   0.4750000   0.5000000), wk =   0.0163934
        k(   84) = (  -0.4500000   0.4500000   0.5000000), wk =   0.0163934
        k(   85) = (  -0.4250000   0.4250000   0.5000000), wk =   0.0163934
        k(   86) = (  -0.4000000   0.4000000   0.5000000), wk =   0.0163934
        k(   87) = (  -0.3750000   0.3750000   0.5000000), wk =   0.0163934
        k(   88) = (  -0.3500000   0.3500000   0.5000000), wk =   0.0163934
        k(   89) = (  -0.3250000   0.3250000   0.5000000), wk =   0.0163934
        k(   90) = (  -0.3000000   0.3000000   0.5000000), wk =   0.0163934
        k(   91) = (  -0.2750000   0.2750000   0.5000000), wk =   0.0163934
        k(   92) = (  -0.2500000   0.2500000   0.5000000), wk =   0.0163934
        k(   93) = (  -0.2250000   0.2250000   0.5000000), wk =   0.0163934
        k(   94) = (  -0.2000000   0.2000000   0.5000000), wk =   0.0163934
        k(   95) = (  -0.1750000   0.1750000   0.5000000), wk =   0.0163934
        k(   96) = (  -0.1500000   0.1500000   0.5000000), wk =   0.0163934
        k(   97) = (  -0.1250000   0.1250000   0.5000000), wk =   0.0163934
        k(   98) = (  -0.1000000   0.1000000   0.5000000), wk =   0.0163934
        k(   99) = (  -0.0750000   0.0750000   0.5000000), wk =   0.0163934
        k(  100) = (  -0.0500000   0.0500000   0.5000000), wk =   0.0163934
        k(  101) = (  -0.0250000   0.0250000   0.5000000), wk =   0.0163934
        k(  102) = (   0.0000000   0.0000000   0.5000000), wk =   0.0163934
        k(  103) = (   0.0125000   0.0125000   0.4875000), wk =   0.0163934
        k(  104) = (   0.0250000   0.0250000   0.4750000), wk =   0.0163934
        k(  105) = (   0.0375000   0.0375000   0.4625000), wk =   0.0163934
        k(  106) = (   0.0500000   0.0500000   0.4500000), wk =   0.0163934
        k(  107) = (   0.0625000   0.0625000   0.4375000), wk =   0.0163934
        k(  108) = (   0.0750000   0.0750000   0.4250000), wk =   0.0163934
        k(  109) = (   0.0875000   0.0875000   0.4125000), wk =   0.0163934
        k(  110) = (   0.1000000   0.1000000   0.4000000), wk =   0.0163934
        k(  111) = (   0.1125000   0.1125000   0.3875000), wk =   0.0163934
        k(  112) = (   0.1250000   0.1250000   0.3750000), wk =   0.0163934
        k(  113) = (   0.1375000   0.1375000   0.3625000), wk =   0.0163934
        k(  114) = (   0.1500000   0.1500000   0.3500000), wk =   0.0163934
        k(  115) = (   0.1625000   0.1625000   0.3375000), wk =   0.0163934
        k(  116) = (   0.1750000   0.1750000   0.3250000), wk =   0.0163934
        k(  117) = (   0.1875000   0.1875000   0.3125000), wk =   0.0163934
        k(  118) = (   0.2000000   0.2000000   0.3000000), wk =   0.0163934
        k(  119) = (   0.2125000   0.2125000   0.2875000), wk =   0.0163934
        k(  120) = (   0.2250000   0.2250000   0.2750000), wk =   0.0163934
        k(  121) = (   0.2375000   0.2375000   0.2625000), wk =   0.0163934
        k(  122) = (   0.2500000   0.2500000   0.2500000), wk =   0.0163934

                       cryst. coord.
        k(    1) = (   0.0000000   0.0000000   0.0000000), wk =   0.0163934
        k(    2) = (   0.0125000   0.0375000   0.0125000), wk =   0.0163934
        k(    3) = (   0.0250000   0.0750000   0.0250000), wk =   0.0163934
        k(    4) = (   0.0375000   0.1125000   0.0375000), wk =   0.0163934
        k(    5) = (   0.0500000   0.1500000   0.0500000), wk =   0.0163934
        k(    6) = (   0.0625000   0.1875000   0.0625000), wk =   0.0163934
        k(    7) = (   0.0750000   0.2250000   0.0750000), wk =   0.0163934
        k(    8) = (   0.0875000   0.2625000   0.0875000), wk =   0.0163934
        k(    9) = (   0.1000000   0.3000000   0.1000000), wk =   0.0163934
        k(   10) = (   0.1125000   0.3375000   0.1125000), wk =   0.0163934
        k(   11) = (   0.1250000   0.3750000   0.1250000), wk =   0.0163934
        k(   12) = (   0.1375000   0.4125000   0.1375000), wk =   0.0163934
        k(   13) = (   0.1500000   0.4500000   0.1500000), wk =   0.0163934
        k(   14) = (   0.1625000   0.4875000   0.1625000), wk =   0.0163934
        k(   15) = (   0.1750000   0.5250000   0.1750000), wk =   0.0163934
        k(   16) = (   0.1875000   0.5625000   0.1875000), wk =   0.0163934
        k(   17) = (   0.2000000   0.6000000   0.2000000), wk =   0.0163934
        k(   18) = (   0.2125000   0.6375000   0.2125000), wk =   0.0163934
        k(   19) = (   0.2250000   0.6750000   0.2250000), wk =   0.0163934
        k(   20) = (   0.2375000   0.7125000   0.2375000), wk =   0.0163934
        k(   21) = (   0.2500000   0.7500000   0.2500000), wk =   0.0163934
        k(   22) = (   0.2500000   0.7250000   0.2500000), wk =   0.0163934
        k(   23) = (   0.2500000   0.7000000   0.2500000), wk =   0.0163934
        k(   24) = (   0.2500000   0.6750000   0.2500000), wk =   0.0163934
        k(   25) = (   0.2500000   0.6500000   0.2500000), wk =   0.0163934
        k(   26) = (   0.2500000   0.6250000   0.2500000), wk =   0.0163934
        k(   27) = (   0.2500000   0.6000000   0.2500000), wk =   0.0163934
        k(   28) = (   0.2500000   0.5750000   0.2500000), wk =   0.0163934
        k(   29) = (   0.2500000   0.5500000   0.2500000), wk =   0.0163934
        k(   30) = (   0.2500000   0.5250000   0.2500000), wk =   0.0163934
        k(   31) = (   0.2500000   0.5000000   0.2500000), wk =   0.0163934
        k(   32) = (   0.2500000   0.4750000   0.2500000), wk =   0.0163934
        k(   33) = (   0.2500000   0.4500000   0.2500000), wk =   0.0163934
        k(   34) = (   0.2500000   0.4250000   0.2500000), wk =   0.0163934
        k(   35) = (   0.2500000   0.4000000   0.2500000), wk =   0.0163934
        k(   36) = (   0.2500000   0.3750000   0.2500000), wk =   0.0163934
        k(   37) = (   0.2500000   0.3500000   0.2500000), wk =   0.0163934
        k(   38) = (   0.2500000   0.3250000   0.2500000), wk =   0.0163934
        k(   39) = (   0.2500000   0.3000000   0.2500000), wk =   0.0163934
        k(   40) = (   0.2500000   0.2750000   0.2500000), wk =   0.0163934
        k(   41) = (   0.2500000   0.2500000   0.2500000), wk =   0.0163934
        k(   42) = (   0.2562500   0.2437500   0.2312500), wk =   0.0163934
        k(   43) = (   0.2625000   0.2375000   0.2125000), wk =   0.0163934
        k(   44) = (   0.2687500   0.2312500   0.1937500), wk =   0.0163934
        k(   45) = (   0.2750000   0.2250000   0.1750000), wk =   0.0163934
        k(   46) = (   0.2812500   0.2187500   0.1562500), wk =   0.0163934
        k(   47) = (   0.2875000   0.2125000   0.1375000), wk =   0.0163934
        k(   48) = (   0.2937500   0.2062500   0.1187500), wk =   0.0163934
        k(   49) = (   0.3000000   0.2000000   0.1000000), wk =   0.0163934
        k(   50) = (   0.3062500   0.1937500   0.0812500), wk =   0.0163934
        k(   51) = (   0.3125000   0.1875000   0.0625000), wk =   0.0163934
        k(   52) = (   0.3187500   0.1812500   0.0437500), wk =   0.0163934
        k(   53) = (   0.3250000   0.1750000   0.0250000), wk =   0.0163934
        k(   54) = (   0.3312500   0.1687500   0.0062500), wk =   0.0163934
        k(   55) = (   0.3375000   0.1625000  -0.0125000), wk =   0.0163934
        k(   56) = (   0.3437500   0.1562500  -0.0312500), wk =   0.0163934
        k(   57) = (   0.3500000   0.1500000  -0.0500000), wk =   0.0163934
        k(   58) = (   0.3562500   0.1437500  -0.0687500), wk =   0.0163934
        k(   59) = (   0.3625000   0.1375000  -0.0875000), wk =   0.0163934
        k(   60) = (   0.3687500   0.1312500  -0.1062500), wk =   0.0163934
        k(   61) = (   0.3750000   0.1250000  -0.1250000), wk =   0.0163934
        k(   62) = (   0.0000000   0.0000000   0.0000000), wk =   0.0163934
        k(   63) = (   0.0125000   0.0375000   0.0125000), wk =   0.0163934
        k(   64) = (   0.0250000   0.0750000   0.0250000), wk =   0.0163934
        k(   65) = (   0.0375000   0.1125000   0.0375000), wk =   0.0163934
        k(   66) = (   0.0500000   0.1500000   0.0500000), wk =   0.0163934
        k(   67) = (   0.0625000   0.1875000   0.0625000), wk =   0.0163934
        k(   68) = (   0.0750000   0.2250000   0.0750000), wk =   0.0163934
        k(   69) = (   0.0875000   0.2625000   0.0875000), wk =   0.0163934
        k(   70) = (   0.1000000   0.3000000   0.1000000), wk =   0.0163934
        k(   71) = (   0.1125000   0.3375000   0.1125000), wk =   0.0163934
        k(   72) = (   0.1250000   0.3750000   0.1250000), wk =   0.0163934
        k(   73) = (   0.1375000   0.4125000   0.1375000), wk =   0.0163934
        k(   74) = (   0.1500000   0.4500000   0.1500000), wk =   0.0163934
        k(   75) = (   0.1625000   0.4875000   0.1625000), wk =   0.0163934
        k(   76) = (   0.1750000   0.5250000   0.1750000), wk =   0.0163934
        k(   77) = (   0.1875000   0.5625000   0.1875000), wk =   0.0163934
        k(   78) = (   0.2000000   0.6000000   0.2000000), wk =   0.0163934
        k(   79) = (   0.2125000   0.6375000   0.2125000), wk =   0.0163934
        k(   80) = (   0.2250000   0.6750000   0.2250000), wk =   0.0163934
        k(   81) = (   0.2375000   0.7125000   0.2375000), wk =   0.0163934
        k(   82) = (   0.2500000   0.7500000   0.2500000), wk =   0.0163934
        k(   83) = (   0.2500000   0.7250000   0.2500000), wk =   0.0163934
        k(   84) = (   0.2500000   0.7000000   0.2500000), wk =   0.0163934
        k(   85) = (   0.2500000   0.6750000   0.2500000), wk =   0.0163934
        k(   86) = (   0.2500000   0.6500000   0.2500000), wk =   0.0163934
        k(   87) = (   0.2500000   0.6250000   0.2500000), wk =   0.0163934
        k(   88) = (   0.2500000   0.6000000   0.2500000), wk =   0.0163934
        k(   89) = (   0.2500000   0.5750000   0.2500000), wk =   0.0163934
        k(   90) = (   0.2500000   0.5500000   0.2500000), wk =   0.0163934
        k(   91) = (   0.2500000   0.5250000   0.2500000), wk =   0.0163934
        k(   92) = (   0.2500000   0.5000000   0.2500000), wk =   0.0163934
        k(   93) = (   0.2500000   0.4750000   0.2500000), wk =   0.0163934
        k(   94) = (   0.2500000   0.4500000   0.2500000), wk =   0.0163934
        k(   95) = (   0.2500000   0.4250000   0.2500000), wk =   0.0163934
        k(   96) = (   0.2500000   0.4000000   0.2500000), wk =   0.0163934
        k(   97) = (   0.2500000   0.3750000   0.2500000), wk =   0.0163934
        k(   98) = (   0.2500000   0.3500000   0.2500000), wk =   0.0163934
        k(   99) = (   0.2500000   0.3250000   0.2500000), wk =   0.0163934
        k(  100) = (   0.2500000   0.3000000   0.2500000), wk =   0.0163934
        k(  101) = (   0.2500000   0.2750000   0.2500000), wk =   0.0163934
        k(  102) = (   0.2500000   0.2500000   0.2500000), wk =   0.0163934
        k(  103) = (   0.2562500   0.2437500   0.2312500), wk =   0.0163934
        k(  104) = (   0.2625000   0.2375000   0.2125000), wk =   0.0163934
        k(  105) = (   0.2687500   0.2312500   0.1937500), wk =   0.0163934
        k(  106) = (   0.2750000   0.2250000   0.1750000), wk =   0.0163934
        k(  107) = (   0.2812500   0.2187500   0.1562500), wk =   0.0163934
        k(  108) = (   0.2875000   0.2125000   0.1375000), wk =   0.0163934
        k(  109) = (   0.2937500   0.2062500   0.1187500), wk =   0.0163934
        k(  110) = (   0.3000000   0.2000000   0.1000000), wk =   0.0163934
        k(  111) = (   0.3062500   0.1937500   0.0812500), wk =   0.0163934
        k(  112) = (   0.3125000   0.1875000   0.0625000), wk =   0.0163934
        k(  113) = (   0.3187500   0.1812500   0.0437500), wk =   0.0163934
        k(  114) = (   0.3250000   0.1750000   0.0250000), wk =   0.0163934
        k(  115) = (   0.3312500   0.1687500   0.0062500), wk =   0.0163934
        k(  116) = (   0.3375000   0.1625000  -0.0125000), wk =   0.0163934
        k(  117) = (   0.3437500   0.1562500  -0.0312500), wk =   0.0163934
        k(  118) = (   0.3500000   0.1500000  -0.0500000), wk =   0.0163934
        k(  119) = (   0.3562500   0.1437500  -0.0687500), wk =   0.0163934
        k(  120) = (   0.3625000   0.1375000  -0.0875000), wk =   0.0163934
        k(  121) = (   0.3687500   0.1312500  -0.1062500), wk =   0.0163934
        k(  122) = (   0.3750000   0.1250000  -0.1250000), wk =   0.0163934

     Dense  grid:     6963 G-vectors     FFT dimensions: (  25,  25,  25)

     Smooth grid:     3151 G-vectors     FFT dimensions: (  20,  20,  20)

     Largest allocated arrays     est. size (Mb)     dimensions
        Kohn-Sham Wavefunctions         0.08 Mb     (    420,   12)
        NL pseudopotentials             0.12 Mb     (    420,   18)
        Each V/rho on FFT grid          0.48 Mb     (  15625,   2)
        Each G-vector array             0.05 Mb     (   6963)
        G-vector shells                 0.00 Mb     (    104)
     Largest temporary arrays     est. size (Mb)     dimensions
        Auxiliary wavefunctions         0.31 Mb     (    420,   48)
        Each subspace H/S matrix        0.04 Mb     (  48,  48)
        Each <psi_i|beta_j> matrix      0.00 Mb     (     18,   12)

     Check: negative/imaginary core charge=   -0.000209    0.000000

     The potential is recalculated from file :
     ../tmp/Fe.save/charge-density.dat

     Starting wfc are   13 randomized atomic wfcs

     total cpu time spent up to now is        1.4 secs

     per-process dynamical memory:    10.9 Mb

     Band Structure Calculation
     Davidson diagonalization with overlap

     Computing kpt #:     1
     total cpu time spent up to now is        1.5 secs

     Computing kpt #:     2
     total cpu time spent up to now is        1.6 secs

     Computing kpt #:     3
     total cpu time spent up to now is        1.6 secs

     Computing kpt #:     4
     total cpu time spent up to now is        1.7 secs

     Computing kpt #:     5
     total cpu time spent up to now is        1.8 secs

     Computing kpt #:     6
     total cpu time spent up to now is        1.8 secs

     Computing kpt #:     7
     total cpu time spent up to now is        1.9 secs

     Computing kpt #:     8
     total cpu time spent up to now is        2.0 secs

     Computing kpt #:     9
     total cpu time spent up to now is        2.0 secs

     Computing kpt #:    10
     total cpu time spent up to now is        2.1 secs

     Computing kpt #:    11
     total cpu time spent up to now is        2.2 secs

     Computing kpt #:    12
     total cpu time spent up to now is        2.2 secs

     Computing kpt #:    13
     total cpu time spent up to now is        2.6 secs

     Computing kpt #:    14
     total cpu time spent up to now is        2.6 secs

     Computing kpt #:    15
     total cpu time spent up to now is        2.7 secs

     Computing kpt #:    16
     total cpu time spent up to now is        2.8 secs

     Computing kpt #:    17
     total cpu time spent up to now is        2.8 secs

     Computing kpt #:    18
     total cpu time spent up to now is        2.9 secs

     Computing kpt #:    19
     total cpu time spent up to now is        2.9 secs

     Computing kpt #:    20
     total cpu time spent up to now is        3.0 secs

     Computing kpt #:    21
     total cpu time spent up to now is        3.1 secs

     Computing kpt #:    22
     total cpu time spent up to now is        3.1 secs

     Computing kpt #:    23
     total cpu time spent up to now is        3.2 secs

     Computing kpt #:    24
     total cpu time spent up to now is        3.2 secs

     Computing kpt #:    25
     total cpu time spent up to now is        3.3 secs

     Computing kpt #:    26
     total cpu time spent up to now is        3.4 secs

     Computing kpt #:    27
     total cpu time spent up to now is        3.4 secs

     Computing kpt #:    28
     total cpu time spent up to now is        3.5 secs

     Computing kpt #:    29
     total cpu time spent up to now is        3.5 secs

     Computing kpt #:    30
     total cpu time spent up to now is        3.6 secs

     Computing kpt #:    31
     total cpu time spent up to now is        3.7 secs

     Computing kpt #:    32
     total cpu time spent up to now is        3.7 secs

     Computing kpt #:    33
     total cpu time spent up to now is        3.8 secs

     Computing kpt #:    34
     total cpu time spent up to now is        3.8 secs

     Computing kpt #:    35
     total cpu time spent up to now is        3.9 secs

     Computing kpt #:    36
     total cpu time spent up to now is        4.0 secs

     Computing kpt #:    37
     total cpu time spent up to now is        4.0 secs

     Computing kpt #:    38
     total cpu time spent up to now is        4.1 secs

     Computing kpt #:    39
     total cpu time spent up to now is        4.2 secs

     Computing kpt #:    40
     total cpu time spent up to now is        4.2 secs

     Computing kpt #:    41
     total cpu time spent up to now is        4.3 secs

     Computing kpt #:    42
     total cpu time spent up to now is        4.3 secs

     Computing kpt #:    43
     total cpu time spent up to now is        4.4 secs

     Computing kpt #:    44
     total cpu time spent up to now is        4.5 secs

     Computing kpt #:    45
     total cpu time spent up to now is        4.5 secs

     Computing kpt #:    46
     total cpu time spent up to now is        4.6 secs

     Computing kpt #:    47
     total cpu time spent up to now is        4.7 secs

     Computing kpt #:    48
     total cpu time spent up to now is        4.7 secs

     Computing kpt #:    49
     total cpu time spent up to now is        4.8 secs

     Computing kpt #:    50
     total cpu time spent up to now is        4.9 secs

     Computing kpt #:    51
     total cpu time spent up to now is        4.9 secs

     Computing kpt #:    52
     total cpu time spent up to now is        5.0 secs

     Computing kpt #:    53
     total cpu time spent up to now is        5.0 secs

     Computing kpt #:    54
     total cpu time spent up to now is        5.1 secs

     Computing kpt #:    55
     total cpu time spent up to now is        5.2 secs

     Computing kpt #:    56
     total cpu time spent up to now is        5.2 secs

     Computing kpt #:    57
     total cpu time spent up to now is        5.3 secs

     Computing kpt #:    58
     total cpu time spent up to now is        5.4 secs

     Computing kpt #:    59
     total cpu time spent up to now is        5.4 secs

     Computing kpt #:    60
     total cpu time spent up to now is        5.5 secs

     Computing kpt #:    61
     total cpu time spent up to now is        5.6 secs

     Computing kpt #:    62
     total cpu time spent up to now is        5.6 secs

     Computing kpt #:    63
     total cpu time spent up to now is        5.7 secs

     Computing kpt #:    64
     total cpu time spent up to now is        5.8 secs

     Computing kpt #:    65
     total cpu time spent up to now is        5.8 secs

     Computing kpt #:    66
     total cpu time spent up to now is        5.9 secs

     Computing kpt #:    67
     total cpu time spent up to now is        6.0 secs

     Computing kpt #:    68
     total cpu time spent up to now is        6.0 secs

     Computing kpt #:    69
     total cpu time spent up to now is        6.1 secs

     Computing kpt #:    70
     total cpu time spent up to now is        6.2 secs

     Computing kpt #:    71
     total cpu time spent up to now is        6.2 secs

     Computing kpt #:    72
     total cpu time spent up to now is        6.3 secs

     Computing kpt #:    73
     total cpu time spent up to now is        6.3 secs

     Computing kpt #:    74
     total cpu time spent up to now is        6.4 secs

     Computing kpt #:    75
     total cpu time spent up to now is        6.5 secs

     Computing kpt #:    76
     total cpu time spent up to now is        6.5 secs

     Computing kpt #:    77
     total cpu time spent up to now is        6.6 secs

     Computing kpt #:    78
     total cpu time spent up to now is        6.7 secs

     Computing kpt #:    79
     total cpu time spent up to now is        6.7 secs

     Computing kpt #:    80
     total cpu time spent up to now is        6.8 secs

     Computing kpt #:    81
     total cpu time spent up to now is        6.8 secs

     Computing kpt #:    82
     total cpu time spent up to now is        6.9 secs

     Computing kpt #:    83
     total cpu time spent up to now is        7.0 secs

     Computing kpt #:    84
     total cpu time spent up to now is        7.0 secs

     Computing kpt #:    85
     total cpu time spent up to now is        7.1 secs

     Computing kpt #:    86
     total cpu time spent up to now is        7.2 secs

     Computing kpt #:    87
     total cpu time spent up to now is        7.2 secs

     Computing kpt #:    88
     total cpu time spent up to now is        7.3 secs

     Computing kpt #:    89
     total cpu time spent up to now is        7.3 secs

     Computing kpt #:    90
     total cpu time spent up to now is        7.4 secs

     Computing kpt #:    91
     total cpu time spent up to now is        7.5 secs

     Computing kpt #:    92
     total cpu time spent up to now is        7.5 secs

     Computing kpt #:    93
     total cpu time spent up to now is        7.6 secs

     Computing kpt #:    94
     total cpu time spent up to now is        7.6 secs

     Computing kpt #:    95
     total cpu time spent up to now is        7.7 secs

     Computing kpt #:    96
     total cpu time spent up to now is        7.8 secs

     Computing kpt #:    97
     total cpu time spent up to now is        7.8 secs

     Computing kpt #:    98
     total cpu time spent up to now is        7.9 secs

     Computing kpt #:    99
     total cpu time spent up to now is        7.9 secs

     Computing kpt #:   100
     total cpu time spent up to now is        8.0 secs

     Computing kpt #:   101
     total cpu time spent up to now is        8.1 secs

     Computing kpt #:   102
     total cpu time spent up to now is        8.1 secs

     Computing kpt #:   103
     total cpu time spent up to now is        8.2 secs

     Computing kpt #:   104
     total cpu time spent up to now is        8.3 secs

     Computing kpt #:   105
     total cpu time spent up to now is        8.3 secs

     Computing kpt #:   106
     total cpu time spent up to now is        8.4 secs

     Computing kpt #:   107
     total cpu time spent up to now is        8.5 secs

     Computing kpt #:   108
     total cpu time spent up to now is        8.5 secs

     Computing kpt #:   109
     total cpu time spent up to now is        8.6 secs

     Computing kpt #:   110
     total cpu time spent up to now is        8.7 secs

     Computing kpt #:   111
     total cpu time spent up to now is        8.7 secs

     Computing kpt #:   112
     total cpu time spent up to now is        8.8 secs

     Computing kpt #:   113
     total cpu time spent up to now is        8.8 secs

     Computing kpt #:   114
     total cpu time spent up to now is        8.9 secs

     Computing kpt #:   115
     total cpu time spent up to now is        9.0 secs

     Computing kpt #:   116
     total cpu time spent up to now is        9.0 secs

     Computing kpt #:   117
     total cpu time spent up to now is        9.1 secs

     Computing kpt #:   118
     total cpu time spent up to now is        9.2 secs

     Computing kpt #:   119
     total cpu time spent up to now is        9.2 secs

     Computing kpt #:   120
     total cpu time spent up to now is        9.3 secs

     Computing kpt #:   121
     total cpu time spent up to now is        9.3 secs

     Computing kpt #:   122
     total cpu time spent up to now is        9.4 secs

     ethr =  6.25E-13,  avg # of iterations = 13.1

     total cpu time spent up to now is        9.4 secs

     End of band structure calculation

 ------ SPIN UP ------------


          k = 0.0000 0.0000 0.0000     band energies (ev):

   -70.8681 -36.6923 -36.6923 -36.6923   8.9298  14.9319  14.9319  14.9319
    16.1983  16.1983  41.2810  41.2810

          k =-0.0250 0.0250 0.0250     band energies (ev):

   -70.8675 -36.6961 -36.6927 -36.6927   8.9679  14.9250  14.9250  14.9551
    16.1933  16.1933  41.1047  41.1047

          k =-0.0500 0.0500 0.0500     band energies (ev):

   -70.8657 -36.7072 -36.6938 -36.6938   9.0817  14.9034  14.9034  15.0244
    16.1798  16.1798  40.5995  40.5995

          k =-0.0750 0.0750 0.0750     band energies (ev):

   -70.8627 -36.7251 -36.6958 -36.6958   9.2690  14.8659  14.8659  15.1395
    16.1617  16.1617  39.8374  39.8374

          k =-0.1000 0.1000 0.1000     band energies (ev):

   -70.8588 -36.7487 -36.6985 -36.6985   9.5265  14.8109  14.8109  15.2996
    16.1438  16.1438  38.9127  38.9127

          k =-0.1250 0.1250 0.1250     band energies (ev):

   -70.8539 -36.7769 -36.7022 -36.7022   9.8493  14.7380  14.7380  15.5038
    16.1312  16.1312  37.9040  37.9040

          k =-0.1500 0.1500 0.1500     band energies (ev):

   -70.8484 -36.8080 -36.7068 -36.7068  10.2308  14.6484  14.6484  15.7511
    16.1274  16.1274  36.8627  36.8627

          k =-0.1750 0.1750 0.1750     band energies (ev):

   -70.8425 -36.8405 -36.7124 -36.7124  10.6624  14.5460  14.5460  16.0417
    16.1337  16.1337  35.8198  35.8198

          k =-0.2000 0.2000 0.2000     band energies (ev):

   -70.8362 -36.8726 -36.7191 -36.7191  11.1331  14.4361  14.4361  16.1497
    16.1497  16.3763  34.7935  34.7935

          k =-0.2250 0.2250 0.2250     band energies (ev):

   -70.8300 -36.9027 -36.7269 -36.7269  11.6294  14.3247  14.3247  16.1735
    16.1735  16.7573  33.7944  33.7944

          k =-0.2500 0.2500 0.2500     band energies (ev):

   -70.8240 -36.9293 -36.7358 -36.7358  12.1338  14.2179  14.2179  16.2027
    16.2027  17.1895  32.8294  32.8294

          k =-0.2750 0.2750 0.2750     band energies (ev):

   -70.8183 -36.9510 -36.7459 -36.7459  12.6261  14.1210  14.1210  16.2351
    16.2351  17.6810  31.9024  31.9024

          k =-0.3000 0.3000 0.3000     band energies (ev):

   -70.8132 -36.9668 -36.7570 -36.7570  13.0835  14.0385  14.0385  16.2682
    16.2682  18.2416  31.0160  31.0160

          k =-0.3250 0.3250 0.3250     band energies (ev):

   -70.8087 -36.9761 -36.7691 -36.7691  13.4835  13.9738  13.9738  16.3001
    16.3001  18.8817  30.1719  30.1719

          k =-0.3500 0.3500 0.3500     band energies (ev):

   -70.8049 -36.9783 -36.7822 -36.7822  13.8075  13.9289  13.9289  16.3294
    16.3294  19.6091  29.3711  29.3711

          k =-0.3750 0.3750 0.3750     band energies (ev):

   -70.8020 -36.9736 -36.7959 -36.7959  13.9049  13.9049  14.0440  16.3549
    16.3549  20.4271  28.6146  28.6146

          k =-0.4000 0.4000 0.4000     band energies (ev):

   -70.7998 -36.9623 -36.8103 -36.8103  13.9019  13.9019  14.1901  16.3760
    16.3760  21.3335  27.9033  27.9033

          k =-0.4250 0.4250 0.4250     band energies (ev):

   -70.7982 -36.9450 -36.8250 -36.8250  13.9183  13.9183  14.2508  16.3919
    16.3919  22.3210  27.2383  27.2383

          k =-0.4500 0.4500 0.4500     band energies (ev):

   -70.7973 -36.9229 -36.8399 -36.8399  13.9523  13.9523  14.2381  16.4028
    16.4028  23.3774  26.6214  26.6214

          k =-0.4750 0.4750 0.4750     band energies (ev):

   -70.7969 -36.8972 -36.8547 -36.8547  14.0004  14.0004  14.1677  16.4090
    16.4090  24.4773  26.0545  26.0545

          k =-0.5000 0.5000 0.5000     band energies (ev):

   -70.7968 -36.8692 -36.8692 -36.8692  14.0584  14.0584  14.0584  16.4109
    16.4109  25.5407  25.5407  25.5407

          k =-0.4750 0.4750 0.5000     band energies (ev):

   -70.7969 -36.8892 -36.8689 -36.8490  13.9719  14.0557  14.1440  16.4093
    16.4102  24.8229  25.5651  26.1562

          k =-0.4500 0.4500 0.5000     band energies (ev):

   -70.7970 -36.9083 -36.8680 -36.8291  13.8865  14.0479  14.2268  16.4043
    16.4083  24.0896  25.6384  26.5572

          k =-0.4250 0.4250 0.5000     band energies (ev):

   -70.7973 -36.9263 -36.8665 -36.8098  13.8035  14.0363  14.3041  16.3951
    16.4066  23.3741  25.7602  26.7946

          k =-0.4000 0.4000 0.5000     band energies (ev):

   -70.7976 -36.9426 -36.8645 -36.7917  13.7235  14.0222  14.3733  16.3803
    16.4069  22.6892  25.9299  26.9854

          k =-0.3750 0.3750 0.5000     band energies (ev):

   -70.7981 -36.9569 -36.8620 -36.7753  13.6467  14.0074  14.4323  16.3588
    16.4115  22.0405  26.1466  27.1828

          k =-0.3500 0.3500 0.5000     band energies (ev):

   -70.7986 -36.9688 -36.8590 -36.7609  13.5729  13.9942  14.4796  16.3292
    16.4226  21.4304  26.4092  27.4061

          k =-0.3250 0.3250 0.5000     band energies (ev):

   -70.7992 -36.9780 -36.8557 -36.7488  13.5011  13.9845  14.5156  16.2905
    16.4419  20.8598  26.7163  27.6632

          k =-0.3000 0.3000 0.5000     band energies (ev):

   -70.7998 -36.9844 -36.8521 -36.7395  13.4301  13.9801  14.5421  16.2420
    16.4694  20.3288  27.0665  27.9580

          k =-0.2750 0.2750 0.5000     band energies (ev):

   -70.8005 -36.9877 -36.8483 -36.7330  13.3582  13.9827  14.5634  16.1834
    16.5040  19.8368  27.4579  28.2930

          k =-0.2500 0.2500 0.5000     band energies (ev):

   -70.8011 -36.9880 -36.8445 -36.7297  13.2837  13.9933  14.5850  16.1149
    16.5427  19.3834  27.8887  28.6695

          k =-0.2250 0.2250 0.5000     band energies (ev):

   -70.8018 -36.9852 -36.8406 -36.7294  13.2061  14.0129  14.6129  16.0373
    16.5811  18.9684  28.3570  29.0883

          k =-0.2000 0.2000 0.5000     band energies (ev):

   -70.8025 -36.9795 -36.8368 -36.7322  13.1257  14.0416  14.6523  15.9517
    16.6133  18.5929  28.8609  29.5496

          k =-0.1750 0.1750 0.5000     band energies (ev):

   -70.8031 -36.9709 -36.8332 -36.7381  13.0440  14.0792  14.7070  15.8599
    16.6315  18.2600  29.3983  30.0524

          k =-0.1500 0.1500 0.5000     band energies (ev):

   -70.8037 -36.9598 -36.8299 -36.7467  12.9636  14.1246  14.7789  15.7642
    16.6251  17.9760  29.9675  30.5949

          k =-0.1250 0.1250 0.5000     band energies (ev):

   -70.8042 -36.9464 -36.8269 -36.7579  12.8879  14.1763  14.8685  15.6677
    16.5822  17.7504  30.5666  31.1731

          k =-0.1000 0.1000 0.5000     band energies (ev):

   -70.8047 -36.9314 -36.8244 -36.7711  12.8204  14.2312  14.9740  15.5742
    16.4945  17.5903  31.1938  31.7795

          k =-0.0750 0.0750 0.5000     band energies (ev):

   -70.8050 -36.9153 -36.8224 -36.7857  12.7643  14.2853  15.0912  15.4892
    16.3682  17.4915  31.8469  32.3992

          k =-0.0500 0.0500 0.5000     band energies (ev):

   -70.8053 -36.8992 -36.8209 -36.8008  12.7222  14.3326  15.2108  15.4192
    16.2264  17.4380  32.5223  32.9991

          k =-0.0250 0.0250 0.5000     band energies (ev):

   -70.8055 -36.8855 -36.8200 -36.8138  12.6961  14.3657  15.3123  15.3723
    16.1054  17.4129  33.2071  33.4970

          k = 0.0000 0.0000 0.5000     band energies (ev):

   -70.8055 -36.8794 -36.8197 -36.8197  12.6873  14.3777  15.3556  15.3556
    16.0544  17.4057  33.7113  33.7113

          k = 0.0125 0.0125 0.4875     band energies (ev):

   -70.8078 -36.8758 -36.8146 -36.8130  12.5905  14.4452  15.3084  15.3242
    16.0228  17.2970  33.7670  33.9273

          k = 0.0250 0.0250 0.4750     band energies (ev):

   -70.8101 -36.8750 -36.8097 -36.8037  12.4913  14.5028  15.2445  15.3064
    16.0158  17.2002  33.6426  34.0322

          k = 0.0375 0.0375 0.4625     band energies (ev):

   -70.8122 -36.8759 -36.8049 -36.7929  12.3916  14.5466  15.1708  15.3055
    16.0280  17.1128  33.4980  34.0537

          k = 0.0500 0.0500 0.4500     band energies (ev):

   -70.8143 -36.8780 -36.8003 -36.7814  12.2935  14.5738  15.0932  15.3233
    16.0539  17.0332  33.3567  34.0241

          k = 0.0625 0.0625 0.4375     band energies (ev):

   -70.8163 -36.8807 -36.7958 -36.7700  12.1990  14.5843  15.0152  15.3594
    16.0897  16.9601  33.2244  33.9673

          k = 0.0750 0.0750 0.4250     band energies (ev):

   -70.8182 -36.8837 -36.7913 -36.7591  12.1104  14.5806  14.9391  15.4106
    16.1325  16.8928  33.1032  33.8984

          k = 0.0875 0.0875 0.4125     band energies (ev):

   -70.8199 -36.8869 -36.7870 -36.7489  12.0297  14.5661  14.8657  15.4727
    16.1803  16.8310  32.9943  33.8267

          k = 0.1000 0.1000 0.4000     band energies (ev):

   -70.8214 -36.8901 -36.7828 -36.7397  11.9585  14.5444  14.7953  15.5414
    16.2309  16.7751  32.8984  33.7576

          k = 0.1125 0.1125 0.3875     band energies (ev):

   -70.8228 -36.8934 -36.7786 -36.7317  11.8985  14.5183  14.7281  15.6133
    16.2818  16.7265  32.8158  33.6945

          k = 0.1250 0.1250 0.3750     band energies (ev):

   -70.8239 -36.8966 -36.7745 -36.7250  11.8509  14.4897  14.6639  15.6856
    16.3289  16.6883  32.7471  33.6395

          k = 0.1375 0.1375 0.3625     band energies (ev):

   -70.8249 -36.8998 -36.7704 -36.7197  11.8168  14.4600  14.6025  15.7566
    16.3650  16.6672  32.6924  33.5935

          k = 0.1500 0.1500 0.3500     band energies (ev):

   -70.8257 -36.9029 -36.7664 -36.7160  11.7968  14.4301  14.5438  15.8248
    16.3813  16.6715  32.6520  33.5566

          k = 0.1625 0.1625 0.3375     band energies (ev):

   -70.8262 -36.9060 -36.7625 -36.7137  11.7915  14.4005  14.4880  15.8892
    16.3754  16.7034  32.6260  33.5281

          k = 0.1750 0.1750 0.3250     band energies (ev):

   -70.8265 -36.9091 -36.7585 -36.7129  11.8011  14.3717  14.4350  15.9491
    16.3547  16.7551  32.6142  33.5059

          k = 0.1875 0.1875 0.3125     band energies (ev):

   -70.8266 -36.9121 -36.7547 -36.7136  11.8253  14.3437  14.3852  16.0041
    16.3275  16.8184  32.6166  33.4862

          k = 0.2000 0.2000 0.3000     band energies (ev):

   -70.8265 -36.9152 -36.7508 -36.7157  11.8638  14.3167  14.3393  16.0540
    16.2985  16.8880  32.6330  33.4617

          k = 0.2125 0.2125 0.2875     band energies (ev):

   -70.8261 -36.9184 -36.7470 -36.7192  11.9155  14.2906  14.2980  16.0986
    16.2705  16.9611  32.6629  33.4180

          k = 0.2250 0.2250 0.2750     band energies (ev):

   -70.8256 -36.9218 -36.7432 -36.7238  11.9791  14.2627  14.2655  16.1381
    16.2447  17.0364  32.7060  33.3281

          k = 0.2375 0.2375 0.2625     band energies (ev):

   -70.8249 -36.9254 -36.7395 -36.7294  12.0527  14.2351  14.2413  16.1727
    16.2220  17.1127  32.7617  33.1467

          k = 0.2500 0.2500 0.2500     band energies (ev):

   -70.8240 -36.9293 -36.7358 -36.7358  12.1338  14.2179  14.2179  16.2027
    16.2027  17.1895  32.8294  32.8294

 ------ SPIN DOWN ----------


          k = 0.0000 0.0000 0.0000     band energies (ev):

   -67.8574 -33.7584 -33.7584 -33.7584   9.0697  17.1294  17.1294  17.1294
    19.0205  19.0205  40.9855  40.9855

          k =-0.0250 0.0250 0.0250     band energies (ev):

   -67.8568 -33.7627 -33.7588 -33.7588   9.1081  17.1200  17.1200  17.1552
    19.0138  19.0138  40.8471  40.8471

          k =-0.0500 0.0500 0.0500     band energies (ev):

   -67.8547 -33.7753 -33.7601 -33.7601   9.2229  17.0913  17.0913  17.2321
    18.9952  18.9952  40.4422  40.4422

          k =-0.0750 0.0750 0.0750     band energies (ev):

   -67.8514 -33.7957 -33.7623 -33.7623   9.4122  17.0416  17.0416  17.3594
    18.9696  18.9696  39.8095  39.8095

          k =-0.1000 0.1000 0.1000     band energies (ev):

   -67.8470 -33.8226 -33.7654 -33.7654   9.6733  16.9696  16.9696  17.5355
    18.9434  18.9434  39.0120  39.0120

          k =-0.1250 0.1250 0.1250     band energies (ev):

   -67.8416 -33.8546 -33.7696 -33.7696  10.0021  16.8747  16.8747  17.7580
    18.9230  18.9230  38.1149  38.1149

          k =-0.1500 0.1500 0.1500     band energies (ev):

   -67.8355 -33.8899 -33.7748 -33.7748  10.3935  16.7582  16.7582  18.0242
    18.9133  18.9133  37.1684  37.1684

          k =-0.1750 0.1750 0.1750     band energies (ev):

   -67.8288 -33.9268 -33.7812 -33.7812  10.8410  16.6245  16.6245  18.3314
    18.9167  18.9167  36.2067  36.2067

          k =-0.2000 0.2000 0.2000     band energies (ev):

   -67.8219 -33.9633 -33.7888 -33.7888  11.3366  16.4792  16.4792  18.6764
    18.9333  18.9333  35.2513  35.2513

          k =-0.2250 0.2250 0.2250     band energies (ev):

   -67.8149 -33.9974 -33.7976 -33.7976  11.8709  16.3294  16.3294  18.9612
    18.9612  19.0567  34.3159  34.3159

          k =-0.2500 0.2500 0.2500     band energies (ev):

   -67.8082 -34.0276 -33.8078 -33.8078  12.4316  16.1819  16.1819  18.9977
    18.9977  19.4703  33.4092  33.4092

          k =-0.2750 0.2750 0.2750     band energies (ev):

   -67.8019 -34.0522 -33.8192 -33.8192  13.0042  16.0431  16.0431  19.0401
    19.0401  19.9181  32.5369  32.5369

          k =-0.3000 0.3000 0.3000     band energies (ev):

   -67.7961 -34.0702 -33.8318 -33.8318  13.5706  15.9179  15.9179  19.0851
    19.0851  20.4030  31.7023  31.7023

          k =-0.3250 0.3250 0.3250     band energies (ev):

   -67.7911 -34.0807 -33.8456 -33.8456  14.1094  15.8104  15.8104  19.1303
    19.1303  20.9321  30.9077  30.9077

          k =-0.3500 0.3500 0.3500     band energies (ev):

   -67.7869 -34.0832 -33.8605 -33.8605  14.5966  15.7232  15.7232  19.1737
    19.1737  21.5159  30.1545  30.1545

          k =-0.3750 0.3750 0.3750     band energies (ev):

   -67.7836 -34.0779 -33.8762 -33.8762  15.0086  15.6577  15.6577  19.2134
    19.2134  22.1675  29.4438  29.4438

          k =-0.4000 0.4000 0.4000     band energies (ev):

   -67.7811 -34.0651 -33.8925 -33.8925  15.3262  15.6143  15.6143  19.2481
    19.2481  22.8990  28.7766  28.7766

          k =-0.4250 0.4250 0.4250     band energies (ev):

   -67.7794 -34.0455 -33.9093 -33.9093  15.5397  15.5920  15.5920  19.2766
    19.2766  23.7180  28.1537  28.1537

          k =-0.4500 0.4500 0.4500     band energies (ev):

   -67.7784 -34.0204 -33.9263 -33.9263  15.5894  15.5894  15.6517  19.2982
    19.2982  24.6233  27.5768  27.5768

          k =-0.4750 0.4750 0.4750     band energies (ev):

   -67.7779 -33.9912 -33.9431 -33.9431  15.6039  15.6039  15.6752  19.3119
    19.3119  25.5976  27.0479  27.0479

          k =-0.5000 0.5000 0.5000     band energies (ev):

   -67.7778 -33.9595 -33.9595 -33.9595  15.6322  15.6322  15.6322  19.3167
    19.3167  26.5699  26.5699  26.5699

          k =-0.4750 0.4750 0.5000     band energies (ev):

   -67.7778 -33.9822 -33.9592 -33.9366  15.5799  15.6323  15.6774  19.3120
    19.3148  25.9088  26.5938  27.1414

          k =-0.4500 0.4500 0.5000     band energies (ev):

   -67.7780 -34.0039 -33.9581 -33.9139  15.5161  15.6328  15.7194  19.2976
    19.3094  25.2454  26.6653  27.5024

          k =-0.4250 0.4250 0.5000     band energies (ev):

   -67.7783 -34.0243 -33.9564 -33.8920  15.4375  15.6345  15.7618  19.2731
    19.3015  24.6103  26.7841  27.7105

          k =-0.4000 0.4000 0.5000     band energies (ev):

   -67.7787 -34.0428 -33.9540 -33.8715  15.3410  15.6384  15.8074  19.2375
    19.2927  24.0138  26.9495  27.8825

          k =-0.3750 0.3750 0.5000     band energies (ev):

   -67.7792 -34.0589 -33.9510 -33.8528  15.2255  15.6459  15.8582  19.1900
    19.2848  23.4590  27.1606  28.0653

          k =-0.3500 0.3500 0.5000     band energies (ev):

   -67.7798 -34.0724 -33.9476 -33.8364  15.0910  15.6587  15.9155  19.1298
    19.2795  22.9462  27.4162  28.2750

          k =-0.3250 0.3250 0.5000     band energies (ev):

   -67.7805 -34.0829 -33.9437 -33.8226  14.9389  15.6783  15.9808  19.0564
    19.2783  22.4734  27.7149  28.5181

          k =-0.3000 0.3000 0.5000     band energies (ev):

   -67.7812 -34.0901 -33.9395 -33.8120  14.7721  15.7063  16.0546  18.9695
    19.2815  22.0381  28.0548  28.7981

          k =-0.2750 0.2750 0.5000     band energies (ev):

   -67.7820 -34.0939 -33.9350 -33.8046  14.5945  15.7440  16.1379  18.8690
    19.2884  21.6375  28.4341  29.1172

          k =-0.2500 0.2500 0.5000     band energies (ev):

   -67.7828 -34.0942 -33.9305 -33.8007  14.4106  15.7924  16.2312  18.7555
    19.2967  21.2693  28.8507  29.4769

          k =-0.2250 0.2250 0.5000     band energies (ev):

   -67.7836 -34.0910 -33.9259 -33.8003  14.2259  15.8523  16.3354  18.6299
    19.3023  20.9330  29.3024  29.8781

          k =-0.2000 0.2000 0.5000     band energies (ev):

   -67.7843 -34.0845 -33.9215 -33.8035  14.0454  15.9242  16.4507  18.4935
    19.2982  20.6308  29.7870  30.3214

          k =-0.1750 0.1750 0.5000     band energies (ev):

   -67.7850 -34.0748 -33.9173 -33.8100  13.8742  16.0076  16.5770  18.3482
    19.2734  20.3696  30.3025  30.8064

          k =-0.1500 0.1500 0.5000     band energies (ev):

   -67.7857 -34.0622 -33.9134 -33.8198  13.7168  16.1020  16.7141  18.1964
    19.2122  20.1615  30.8468  31.3317

          k =-0.1250 0.1250 0.5000     band energies (ev):

   -67.7863 -34.0471 -33.9099 -33.8323  13.5771  16.2058  16.8607  18.0412
    19.1021  20.0177  31.4180  31.8941

          k =-0.1000 0.1000 0.5000     band energies (ev):

   -67.7868 -34.0301 -33.9070 -33.8472  13.4584  16.3159  17.0141  17.8868
    18.9474  19.9337  32.0143  32.4874

          k =-0.0750 0.0750 0.5000     band energies (ev):

   -67.7873 -34.0120 -33.9046 -33.8637  13.3635  16.4275  17.1695  17.7396
    18.7700  19.8911  32.6338  33.0984

          k =-0.0500 0.0500 0.5000     band energies (ev):

   -67.7876 -33.9940 -33.9028 -33.8805  13.2943  16.5311  17.3161  17.6097
    18.5977  19.8714  33.2738  33.6973

          k =-0.0250 0.0250 0.5000     band energies (ev):

   -67.7877 -33.9788 -33.9018 -33.8950  13.2522  16.6102  17.4317  17.5147
    18.4634  19.8633  33.9257  34.2055

          k = 0.0000 0.0000 0.5000     band energies (ev):

   -67.7878 -33.9721 -33.9014 -33.9014  13.2381  16.6411  17.4784  17.4784
    18.4099  19.8611  34.4305  34.4305

          k = 0.0125 0.0125 0.4875     band energies (ev):

   -67.7903 -33.9680 -33.8957 -33.8939  13.0935  16.7220  17.4286  17.4515
    18.3721  19.8087  34.4625  34.6419

          k = 0.0250 0.0250 0.4750     band energies (ev):

   -67.7928 -33.9669 -33.8902 -33.8836  12.9535  16.7770  17.3601  17.4551
    18.3604  19.7610  34.3281  34.7341

          k = 0.0375 0.0375 0.4625     band energies (ev):

   -67.7952 -33.9679 -33.8848 -33.8715  12.8194  16.7998  17.2787  17.4949
    18.3701  19.7164  34.1820  34.7402

          k = 0.0500 0.0500 0.4500     band energies (ev):

   -67.7976 -33.9701 -33.8796 -33.8588  12.6929  16.7932  17.1901  17.5671
    18.3961  19.6735  34.0410  34.6968

          k = 0.0625 0.0625 0.4375     band energies (ev):

   -67.7998 -33.9731 -33.8746 -33.8460  12.5753  16.7662  17.0987  17.6619
    18.4342  19.6315  33.9089  34.6287

          k = 0.0750 0.0750 0.4250     band energies (ev):

   -67.8018 -33.9764 -33.8696 -33.8337  12.4681  16.7275  17.0075  17.7698
    18.4814  19.5896  33.7871  34.5508

          k = 0.0875 0.0875 0.4125     band energies (ev):

   -67.8037 -33.9799 -33.8648 -33.8222  12.3723  16.6829  16.9185  17.8840
    18.5355  19.5474  33.6766  34.4718

          k = 0.1000 0.1000 0.4000     band energies (ev):

   -67.8054 -33.9836 -33.8601 -33.8119  12.2890  16.6358  16.8330  18.0001
    18.5949  19.5046  33.5781  34.3966

          k = 0.1125 0.1125 0.3875     band energies (ev):

   -67.8069 -33.9872 -33.8554 -33.8029  12.2192  16.5884  16.7515  18.1153
    18.6585  19.4611  33.4921  34.3283

          k = 0.1250 0.1250 0.3750     band energies (ev):

   -67.8082 -33.9908 -33.8508 -33.7954  12.1636  16.5417  16.6748  18.2274
    18.7254  19.4170  33.4189  34.2685

          k = 0.1375 0.1375 0.3625     band energies (ev):

   -67.8093 -33.9944 -33.8463 -33.7895  12.1227  16.4964  16.6028  18.3351
    18.7947  19.3724  33.3590  34.2178

          k = 0.1500 0.1500 0.3500     band energies (ev):

   -67.8101 -33.9979 -33.8418 -33.7852  12.0971  16.4531  16.5357  18.4371
    18.8657  19.3278  33.3125  34.1761

          k = 0.1625 0.1625 0.3375     band energies (ev):

   -67.8107 -34.0014 -33.8374 -33.7827  12.0869  16.4119  16.4735  18.5327
    18.9377  19.2838  33.2796  34.1422

          k = 0.1750 0.1750 0.3250     band energies (ev):

   -67.8110 -34.0048 -33.8331 -33.7818  12.0923  16.3729  16.4163  18.6212
    19.0093  19.2418  33.2602  34.1135

          k = 0.1875 0.1875 0.3125     band energies (ev):

   -67.8111 -34.0083 -33.8287 -33.7827  12.1132  16.3362  16.3640  18.7023
    19.0761  19.2062  33.2542  34.0855

          k = 0.2000 0.2000 0.3000     band energies (ev):

   -67.8110 -34.0117 -33.8245 -33.7851  12.1492  16.3016  16.3168  18.7759
    19.1126  19.2027  33.2612  34.0502

          k = 0.2125 0.2125 0.2875     band energies (ev):

   -67.8106 -34.0154 -33.8202 -33.7889  12.1998  16.2690  16.2746  18.8420
    19.0936  19.2565  33.2809  33.9933

          k = 0.2250 0.2250 0.2750     band energies (ev):

   -67.8100 -34.0191 -33.8160 -33.7941  12.2644  16.2378  16.2383  18.9008
    19.0609  19.3261  33.3126  33.8903

          k = 0.2375 0.2375 0.2625     band energies (ev):

   -67.8092 -34.0232 -33.8119 -33.8005  12.3421  16.2067  16.2093  18.9525
    19.0281  19.3982  33.3556  33.7058

          k = 0.2500 0.2500 0.2500     band energies (ev):

   -67.8082 -34.0276 -33.8078 -33.8078  12.4316  16.1819  16.1819  18.9977
    18.9977  19.4703  33.4092  33.4092

     Writing output data file Fe.save

     init_run     :      0.91s CPU      1.21s WALL (       1 calls)
     electrons    :      7.62s CPU      8.00s WALL (       1 calls)

     Called by init_run:
     wfcinit      :      0.00s CPU      0.00s WALL (       1 calls)
     potinit      :      0.06s CPU      0.06s WALL (       1 calls)

     Called by electrons:
     c_bands      :      7.61s CPU      7.99s WALL (       1 calls)
     v_of_rho     :      0.05s CPU      0.06s WALL (       1 calls)
     v_h          :      0.00s CPU      0.00s WALL (       1 calls)
     v_xc         :      0.05s CPU      0.06s WALL (       1 calls)
     newd         :      0.04s CPU      0.04s WALL (       1 calls)

     Called by c_bands:
     init_us_2    :      0.04s CPU      0.05s WALL (     122 calls)
     cegterg      :      6.87s CPU      6.92s WALL (     122 calls)

     Called by sum_band:

     Called by *egterg:
     h_psi        :      3.66s CPU      3.69s WALL (    1845 calls)
     s_psi        :      0.29s CPU      0.29s WALL (    1845 calls)
     g_psi        :      0.08s CPU      0.08s WALL (    1601 calls)
     cdiaghg      :      1.22s CPU      1.32s WALL (    1723 calls)
     cegterg:over :      0.90s CPU      0.85s WALL (    1601 calls)
     cegterg:upda :      0.52s CPU      0.50s WALL (    1601 calls)
     cegterg:last :      0.47s CPU      0.49s WALL (     370 calls)

     Called by h_psi:
     h_psi:vloc   :      3.09s CPU      3.08s WALL (    1845 calls)
     h_psi:vnl    :      0.53s CPU      0.58s WALL (    1845 calls)
     add_vuspsi   :      0.26s CPU      0.29s WALL (    1845 calls)

     General routines
     calbec       :      0.26s CPU      0.28s WALL (    1845 calls)
     fft          :      0.00s CPU      0.01s WALL (      23 calls)
     ffts         :      0.00s CPU      0.00s WALL (       2 calls)
     fftw         :      2.33s CPU      2.34s WALL (   30890 calls)
     interpolate  :      0.00s CPU      0.00s WALL (       2 calls)
     davcio       :      0.01s CPU      0.01s WALL (     122 calls)

     Parallel routines
     fft_scatter  :      0.26s CPU      0.31s WALL (   30915 calls)

     PWSCF        :     8.93s CPU         9.65s WALL


   This run was terminated on:  12:34:42  15Feb2014            

=------------------------------------------------------------------------------=
   JOB DONE.
=------------------------------------------------------------------------------=
