
     Program PWSCF v.5.0.2 (svn rev. 9656) starts on 15Feb2014 at  9:42:16 

     This program is part of the open-source Quantum ESPRESSO suite
     for quantum simulation of materials; please cite
         "P. Giannozzi et al., J. Phys.:Condens. Matter 21 395502 (2009);
          URL http://www.quantum-espresso.org", 
     in publications or presentations arising from this work. More details at
     http://www.quantum-espresso.org/quote.php

     Parallel version (MPI), running on     1 processors

     Current dimensions of program PWSCF are:
     Max number of different atomic species (ntypx) = 10
     Max number of k-points (npk) =  40000
     Max angular momentum in pseudopotentials (lmaxx) =  3
     Waiting for input...
     Reading input from standard input

     Subspace diagonalization in iterative solution of the eigenvalue problem:
     a serial algorithm will be used


     G-vector sticks info
     --------------------
     sticks:   dense  smooth     PW     G-vecs:    dense   smooth      PW
     Sum         487     291     99                 6963     3151     627



     bravais-lattice index     =            3
     lattice parameter (alat)  =       5.4200  a.u.
     unit-cell volume          =      79.6100 (a.u.)^3
     number of atoms/cell      =            1
     number of atomic types    =            1
     number of electrons       =        16.00
     number of Kohn-Sham states=           12
     kinetic-energy cutoff     =      45.0000  Ry
     charge density cutoff     =     300.0000  Ry
     convergence threshold     =      1.0E-10
     mixing beta               =       0.7000
     number of iterations used =            8  plain     mixing
     Exchange-correlation      = SLA  PW   PBE  PBE ( 1 4 3 4 0)
     EXX-fraction              =        0.00

     celldm(1)=   5.420000  celldm(2)=   0.000000  celldm(3)=   0.000000
     celldm(4)=   0.000000  celldm(5)=   0.000000  celldm(6)=   0.000000

     crystal axes: (cart. coord. in units of alat)
               a(1) = (   0.500000   0.500000   0.500000 )  
               a(2) = (  -0.500000   0.500000   0.500000 )  
               a(3) = (  -0.500000  -0.500000   0.500000 )  

     reciprocal axes: (cart. coord. in units 2 pi/alat)
               b(1) = (  1.000000  0.000000  1.000000 )  
               b(2) = ( -1.000000  1.000000  0.000000 )  
               b(3) = (  0.000000 -1.000000  1.000000 )  


     PseudoPot. # 1 for Fe read from file:
     ../pps/fe_pbe_v1.uspp.F.UPF
     MD5 check sum: e6601fc8106164ab3104f788edde3ce3
     Pseudo is Ultrasoft + core correction, Zval = 16.0
     Generated by new atomic code, or converted to UPF format
     Using radial grid of  861 points,  6 beta functions with: 
                l(1) =   0
                l(2) =   0
                l(3) =   1
                l(4) =   1
                l(5) =   2
                l(6) =   2
     Q(r) pseudized with  8 coefficients,  rinner =    1.200   1.200   1.200
                                                       1.200   1.200

     atomic species   valence    mass     pseudopotential
        Fe            16.00    55.84500     Fe( 1.00)

     Starting magnetic structure 
     atomic species   magnetization
        Fe           0.500

     48 Sym. Ops., with inversion, found



   Cartesian axes

     site n.     atom                  positions (alat units)
         1           Fe  tau(   1) = (   0.0000000   0.0000000   0.0000000  )

     number of k points=    52  Methfessel-Paxton smearing, width (Ry)=  0.0400
                       cart. coord. in units 2pi/alat
        k(    1) = (   0.0000000   0.0000000   0.1250000), wk =   0.0117188
        k(    2) = (   0.0000000  -0.1250000   0.2500000), wk =   0.0468750
        k(    3) = (   0.0000000  -0.2500000   0.3750000), wk =   0.0468750
        k(    4) = (   0.0000000  -0.3750000   0.5000000), wk =   0.0468750
        k(    5) = (  -0.1250000   0.1250000   0.1250000), wk =   0.0156250
        k(    6) = (  -0.1250000  -0.1250000   0.3750000), wk =   0.0468750
        k(    7) = (  -0.1250000  -0.2500000   0.5000000), wk =   0.0937500
        k(    8) = (  -0.1250000   0.6250000  -0.3750000), wk =   0.0468750
        k(    9) = (  -0.2500000   0.2500000   0.1250000), wk =   0.0468750
        k(   10) = (  -0.2500000   0.7500000  -0.3750000), wk =   0.0468750
        k(   11) = (  -0.3750000   0.3750000   0.1250000), wk =   0.0468750
        k(   12) = (  -0.3750000   0.2500000   0.2500000), wk =   0.0468750
        k(   13) = (   0.5000000  -0.5000000   0.1250000), wk =   0.0234375
        k(   14) = (   0.5000000  -0.6250000   0.2500000), wk =   0.0937500
        k(   15) = (   0.3750000  -0.6250000   0.3750000), wk =   0.0156250
        k(   16) = (   0.0000000   0.0000000   0.3750000), wk =   0.0117188
        k(   17) = (   0.0000000  -0.1250000   0.5000000), wk =   0.0468750
        k(   18) = (   0.0000000  -0.2500000   0.6250000), wk =   0.0468750
        k(   19) = (  -0.1250000  -0.1250000   0.6250000), wk =   0.0468750
        k(   20) = (  -0.1250000   0.7500000  -0.2500000), wk =   0.0468750
        k(   21) = (   0.6250000  -0.6250000   0.3750000), wk =   0.0156250
        k(   22) = (   0.5000000  -0.5000000   0.3750000), wk =   0.0234375
        k(   23) = (   0.0000000   0.0000000   0.6250000), wk =   0.0117188
        k(   24) = (   0.0000000  -0.1250000   0.7500000), wk =   0.0468750
        k(   25) = (  -0.1250000   0.8750000  -0.1250000), wk =   0.0156250
        k(   26) = (   0.0000000   0.0000000   0.8750000), wk =   0.0117188
        k(   27) = (   0.0000000   0.0000000   0.1250000), wk =   0.0117188
        k(   28) = (   0.0000000  -0.1250000   0.2500000), wk =   0.0468750
        k(   29) = (   0.0000000  -0.2500000   0.3750000), wk =   0.0468750
        k(   30) = (   0.0000000  -0.3750000   0.5000000), wk =   0.0468750
        k(   31) = (  -0.1250000   0.1250000   0.1250000), wk =   0.0156250
        k(   32) = (  -0.1250000  -0.1250000   0.3750000), wk =   0.0468750
        k(   33) = (  -0.1250000  -0.2500000   0.5000000), wk =   0.0937500
        k(   34) = (  -0.1250000   0.6250000  -0.3750000), wk =   0.0468750
        k(   35) = (  -0.2500000   0.2500000   0.1250000), wk =   0.0468750
        k(   36) = (  -0.2500000   0.7500000  -0.3750000), wk =   0.0468750
        k(   37) = (  -0.3750000   0.3750000   0.1250000), wk =   0.0468750
        k(   38) = (  -0.3750000   0.2500000   0.2500000), wk =   0.0468750
        k(   39) = (   0.5000000  -0.5000000   0.1250000), wk =   0.0234375
        k(   40) = (   0.5000000  -0.6250000   0.2500000), wk =   0.0937500
        k(   41) = (   0.3750000  -0.6250000   0.3750000), wk =   0.0156250
        k(   42) = (   0.0000000   0.0000000   0.3750000), wk =   0.0117188
        k(   43) = (   0.0000000  -0.1250000   0.5000000), wk =   0.0468750
        k(   44) = (   0.0000000  -0.2500000   0.6250000), wk =   0.0468750
        k(   45) = (  -0.1250000  -0.1250000   0.6250000), wk =   0.0468750
        k(   46) = (  -0.1250000   0.7500000  -0.2500000), wk =   0.0468750
        k(   47) = (   0.6250000  -0.6250000   0.3750000), wk =   0.0156250
        k(   48) = (   0.5000000  -0.5000000   0.3750000), wk =   0.0234375
        k(   49) = (   0.0000000   0.0000000   0.6250000), wk =   0.0117188
        k(   50) = (   0.0000000  -0.1250000   0.7500000), wk =   0.0468750
        k(   51) = (  -0.1250000   0.8750000  -0.1250000), wk =   0.0156250
        k(   52) = (   0.0000000   0.0000000   0.8750000), wk =   0.0117188

     Dense  grid:     6963 G-vectors     FFT dimensions: (  25,  25,  25)

     Smooth grid:     3151 G-vectors     FFT dimensions: (  20,  20,  20)

     Largest allocated arrays     est. size (Mb)     dimensions
        Kohn-Sham Wavefunctions         0.08 Mb     (    416,   12)
        NL pseudopotentials             0.11 Mb     (    416,   18)
        Each V/rho on FFT grid          0.48 Mb     (  15625,   2)
        Each G-vector array             0.05 Mb     (   6963)
        G-vector shells                 0.00 Mb     (    104)
     Largest temporary arrays     est. size (Mb)     dimensions
        Auxiliary wavefunctions         0.30 Mb     (    416,   48)
        Each subspace H/S matrix        0.04 Mb     (  48,  48)
        Each <psi_i|beta_j> matrix      0.00 Mb     (     18,   12)
        Arrays for rho mixing           1.91 Mb     (  15625,   8)

     Check: negative/imaginary core charge=   -0.000209    0.000000

     Initial potential from superposition of free atoms

     starting charge   14.99999, renormalised to   16.00000
     Starting wfc are   13 randomized atomic wfcs

     total cpu time spent up to now is        1.3 secs

     per-process dynamical memory:    10.9 Mb

     Self-consistent Calculation

     iteration #  1     ecut=    45.00 Ry     beta=0.70
     Davidson diagonalization with overlap
     ethr =  1.00E-02,  avg # of iterations =  3.0

     total cpu time spent up to now is        2.3 secs

     total energy              =    -252.31032163 Ry
     Harris-Foulkes estimate   =    -253.58688477 Ry
     estimated scf accuracy    <       2.82192894 Ry

     total magnetization       =     3.36 Bohr mag/cell
     absolute magnetization    =     3.38 Bohr mag/cell

     iteration #  2     ecut=    45.00 Ry     beta=0.70
     Davidson diagonalization with overlap
     ethr =  1.00E-02,  avg # of iterations =  2.6

     total cpu time spent up to now is        3.4 secs

     total energy              =    -252.45129619 Ry
     Harris-Foulkes estimate   =    -254.52013937 Ry
     estimated scf accuracy    <       4.82987939 Ry

     total magnetization       =     2.28 Bohr mag/cell
     absolute magnetization    =     2.35 Bohr mag/cell

     iteration #  3     ecut=    45.00 Ry     beta=0.70
     Davidson diagonalization with overlap
     ethr =  1.00E-02,  avg # of iterations =  2.1

     total cpu time spent up to now is        4.3 secs

     total energy              =    -253.44262243 Ry
     Harris-Foulkes estimate   =    -253.45889336 Ry
     estimated scf accuracy    <       0.11963821 Ry

     total magnetization       =     2.84 Bohr mag/cell
     absolute magnetization    =     2.96 Bohr mag/cell

     iteration #  4     ecut=    45.00 Ry     beta=0.70
     Davidson diagonalization with overlap
     ethr =  7.48E-04,  avg # of iterations =  1.9

     total cpu time spent up to now is        5.1 secs

     total energy              =    -253.47009000 Ry
     Harris-Foulkes estimate   =    -253.47065934 Ry
     estimated scf accuracy    <       0.00704275 Ry

     total magnetization       =     2.51 Bohr mag/cell
     absolute magnetization    =     2.67 Bohr mag/cell

     iteration #  5     ecut=    45.00 Ry     beta=0.70
     Davidson diagonalization with overlap
     ethr =  4.40E-05,  avg # of iterations =  1.7

     total cpu time spent up to now is        5.9 secs

     total energy              =    -253.47178523 Ry
     Harris-Foulkes estimate   =    -253.47140266 Ry
     estimated scf accuracy    <       0.00061638 Ry

     total magnetization       =     2.40 Bohr mag/cell
     absolute magnetization    =     2.57 Bohr mag/cell

     iteration #  6     ecut=    45.00 Ry     beta=0.70
     Davidson diagonalization with overlap
     ethr =  3.85E-06,  avg # of iterations =  1.9

     total cpu time spent up to now is        6.8 secs

     total energy              =    -253.47193698 Ry
     Harris-Foulkes estimate   =    -253.47201411 Ry
     estimated scf accuracy    <       0.00066495 Ry

     total magnetization       =     2.36 Bohr mag/cell
     absolute magnetization    =     2.53 Bohr mag/cell

     iteration #  7     ecut=    45.00 Ry     beta=0.70
     Davidson diagonalization with overlap
     ethr =  3.85E-06,  avg # of iterations =  1.5

     total cpu time spent up to now is        7.5 secs

     total energy              =    -253.47217291 Ry
     Harris-Foulkes estimate   =    -253.47216586 Ry
     estimated scf accuracy    <       0.00002124 Ry

     total magnetization       =     2.31 Bohr mag/cell
     absolute magnetization    =     2.46 Bohr mag/cell

     iteration #  8     ecut=    45.00 Ry     beta=0.70
     Davidson diagonalization with overlap
     ethr =  1.33E-07,  avg # of iterations =  2.0

     total cpu time spent up to now is        8.4 secs

     total energy              =    -253.47218605 Ry
     Harris-Foulkes estimate   =    -253.47218698 Ry
     estimated scf accuracy    <       0.00000543 Ry

     total magnetization       =     2.29 Bohr mag/cell
     absolute magnetization    =     2.45 Bohr mag/cell

     iteration #  9     ecut=    45.00 Ry     beta=0.70
     Davidson diagonalization with overlap
     ethr =  3.39E-08,  avg # of iterations =  1.5

     total cpu time spent up to now is        9.2 secs

     total energy              =    -253.47218772 Ry
     Harris-Foulkes estimate   =    -253.47218766 Ry
     estimated scf accuracy    <       0.00000016 Ry

     total magnetization       =     2.29 Bohr mag/cell
     absolute magnetization    =     2.44 Bohr mag/cell

     iteration # 10     ecut=    45.00 Ry     beta=0.70
     Davidson diagonalization with overlap
     ethr =  1.03E-09,  avg # of iterations =  2.1

     total cpu time spent up to now is       10.0 secs

     total energy              =    -253.47218777 Ry
     Harris-Foulkes estimate   =    -253.47218779 Ry
     estimated scf accuracy    <       0.00000006 Ry

     total magnetization       =     2.29 Bohr mag/cell
     absolute magnetization    =     2.44 Bohr mag/cell

     iteration # 11     ecut=    45.00 Ry     beta=0.70
     Davidson diagonalization with overlap
     ethr =  3.52E-10,  avg # of iterations =  1.5

     total cpu time spent up to now is       10.9 secs

     total energy              =    -253.47218780 Ry
     Harris-Foulkes estimate   =    -253.47218780 Ry
     estimated scf accuracy    <          1.0E-10 Ry

     total magnetization       =     2.29 Bohr mag/cell
     absolute magnetization    =     2.44 Bohr mag/cell

     iteration # 12     ecut=    45.00 Ry     beta=0.70
     Davidson diagonalization with overlap
     ethr =  6.35E-13,  avg # of iterations =  2.3

     total cpu time spent up to now is       11.8 secs

     End of self-consistent calculation

 ------ SPIN UP ------------


          k = 0.0000 0.0000 0.1250 (   401 PWs)   bands (ev):

   -70.8631 -36.7106 -36.7017 -36.7017   9.2445  14.9311  14.9311  15.0153
    16.0606  16.2518  39.7070  40.9603

          k = 0.0000-0.1250 0.2500 (   402 PWs)   bands (ev):

   -70.8452 -36.8054 -36.7353 -36.7038  10.4155  14.6757  14.8672  15.6049
    15.8214  16.3455  35.4488  38.6944

          k = 0.0000-0.2500 0.3750 (   407 PWs)   bands (ev):

   -70.8198 -36.9418 -36.7825 -36.7028  12.0494  14.2961  14.9350  15.9965
    16.5145  16.5754  29.8083  36.3562

          k = 0.0000-0.3750 0.5000 (   406 PWs)   bands (ev):

   -70.8018 -37.0371 -36.8157 -36.7020  12.5402  14.0388  15.7104  16.1638
    17.3584  17.7954  25.1381  35.0120

          k =-0.1250 0.1250 0.1250 (   393 PWs)   bands (ev):

   -70.8540 -36.7769 -36.7022 -36.7022   9.8493  14.7380  14.7380  15.5038
    16.1312  16.1312  37.9040  37.9040

          k =-0.1250-0.1250 0.3750 (   399 PWs)   bands (ev):

   -70.8240 -36.8966 -36.7745 -36.7250  11.8509  14.4897  14.6638  15.6856
    16.3289  16.6883  32.7471  33.6395

          k =-0.1250-0.2500 0.5000 (   405 PWs)   bands (ev):

   -70.8027 -36.9886 -36.8285 -36.7294  12.9262  14.1904  14.7455  15.9663
    16.7121  18.3378  27.6709  31.4767

          k =-0.1250 0.6250-0.3750 (   404 PWs)   bands (ev):

   -70.7939 -37.0259 -36.8528 -36.7296  12.9811  14.1707  14.9348  16.0690
    17.0389  20.3096  24.3456  30.7935

          k =-0.2500 0.2500 0.1250 (   400 PWs)   bands (ev):

   -70.8319 -36.8918 -36.7473 -36.7033  11.4199  14.3466  14.5534  16.0616
    16.2488  16.4817  32.6498  35.6483

          k =-0.2500 0.7500-0.3750 (   406 PWs)   bands (ev):

   -70.7906 -36.9845 -36.9048 -36.7414  13.6385  13.9168  14.4266  16.2483
    16.6832  21.5003  25.8195  27.0255

          k =-0.3750 0.3750 0.1250 (   406 PWs)   bands (ev):

   -70.8097 -36.9974 -36.8002 -36.7045  12.5861  14.0108  15.2895  16.1888
    16.3432  17.8555  27.2961  33.9850

          k =-0.3750 0.2500 0.2500 (   402 PWs)   bands (ev):

   -70.8130 -36.9667 -36.7852 -36.7286  12.8895  14.0868  14.2642  16.1370
    16.3703  18.0533  30.2246  30.9430

          k = 0.5000-0.5000 0.1250 (   406 PWs)   bands (ev):

   -70.8005 -37.0399 -36.8229 -36.7050  12.6612  13.8818  16.2504  16.2560
    16.3820  19.2170  24.2414  33.3722

          k = 0.5000-0.6250 0.2500 (   410 PWs)   bands (ev):

   -70.7996 -36.9946 -36.8460 -36.7374  13.2623  13.9209  14.8866  16.2689
    16.4573  20.4525  25.6495  29.4181

          k = 0.3750-0.6250 0.3750 (   408 PWs)   bands (ev):

   -70.7954 -36.9291 -36.9291 -36.7512  13.5687  14.2742  14.2742  16.4028
    16.4028  23.9059  23.9059  26.2168

          k = 0.0000 0.0000 0.3750 (   398 PWs)   bands (ev):

   -70.8285 -36.8213 -36.7701 -36.7701  11.4474  15.0744  15.0771  15.0771
    15.6183  16.6869  35.5974  36.5301

          k = 0.0000-0.1250 0.5000 (   408 PWs)   bands (ev):

   -70.8049 -36.9270 -36.8190 -36.7790  12.7636  14.3277  14.9442  15.5927
    16.4638  17.4895  30.6484  33.9785

          k = 0.0000-0.2500 0.6250 (   416 PWs)   bands (ev):

   -70.7882 -37.0116 -36.8535 -36.7745  13.0861  14.2599  14.7546  15.8067
    17.2805  19.8944  25.6523  32.3859

          k =-0.1250-0.1250 0.6250 (   414 PWs)   bands (ev):

   -70.7858 -36.9736 -36.8805 -36.7986  13.3923  13.7264  15.0257  15.9671
    16.8760  19.7658  28.5762  29.1039

          k =-0.1250 0.7500-0.2500 (   410 PWs)   bands (ev):

   -70.7779 -36.9920 -36.9148 -36.7985  13.3682  13.7343  14.8331  16.2664
    17.0987  22.7167  24.8176  28.1566

          k = 0.6250-0.6250 0.3750 (   408 PWs)   bands (ev):

   -70.8020 -36.9736 -36.7960 -36.7960  13.9049  13.9049  14.0440  16.3549
    16.3549  20.4271  28.6146  28.6146

          k = 0.5000-0.5000 0.3750 (   408 PWs)   bands (ev):

   -70.7975 -36.9392 -36.8613 -36.8004  13.7903  13.8649  14.4963  16.3865
    16.4060  23.2096  24.9578  28.0609

          k = 0.0000 0.0000 0.6250 (   414 PWs)   bands (ev):

   -70.7838 -36.9212 -36.8704 -36.8704  13.1881  13.6889  15.8191  15.8191
    16.4984  19.1471  31.1039  31.1039

          k = 0.0000-0.1250 0.7500 (   410 PWs)   bands (ev):

   -70.7689 -36.9755 -36.9066 -36.8758  13.1169  13.2468  15.9523  16.2244
    17.1728  22.1872  26.8185  29.3211

          k =-0.1250 0.8750-0.1250 (   415 PWs)   bands (ev):

   -70.7619 -36.9581 -36.9581 -36.8850  12.9868  12.9868  16.0535  17.0238
    17.0238  25.5154  25.5154  26.5501

          k = 0.0000 0.0000 0.8750 (   398 PWs)   bands (ev):

   -70.7552 -36.9526 -36.9440 -36.9440  12.7358  12.7369  16.9841  16.9841
    17.1394  24.8988  27.3471  27.3471

 ------ SPIN DOWN ----------


          k = 0.0000 0.0000 0.1250 (   401 PWs)   bands (ev):

   -67.8518 -33.7795 -33.7689 -33.7689   9.3874  17.1148  17.1148  17.2240
    18.8366  19.0889  39.5997  40.8469

          k = 0.0000-0.1250 0.2500 (   402 PWs)   bands (ev):

   -67.8319 -33.8874 -33.8065 -33.7715  10.5884  16.7937  16.9747  17.8835
    18.4884  19.1943  35.9119  38.8110

          k = 0.0000-0.2500 0.3750 (   407 PWs)   bands (ev):

   -67.8036 -34.0423 -33.8593 -33.7706  12.5362  16.3252  16.6467  18.5722
    18.9932  19.3081  30.6966  36.4709

          k = 0.0000-0.3750 0.5000 (   406 PWs)   bands (ev):

   -67.7835 -34.1503 -33.8965 -33.7699  13.8148  16.0118  17.1235  18.7844
    19.6501  19.9145  26.4988  35.0898

          k =-0.1250 0.1250 0.1250 (   393 PWs)   bands (ev):

   -67.8416 -33.8546 -33.7696 -33.7696  10.0021  16.8746  16.8746  17.7580
    18.9230  18.9230  38.1149  38.1149

          k =-0.1250-0.1250 0.3750 (   399 PWs)   bands (ev):

   -67.8082 -33.9909 -33.8508 -33.7954  12.1636  16.5416  16.6748  18.2274
    18.7254  19.4170  33.4189  34.2685

          k =-0.1250-0.2500 0.5000 (   405 PWs)   bands (ev):

   -67.7846 -34.0949 -33.9117 -33.8004  13.9174  16.0843  16.4794  18.4915
    19.3496  20.4013  28.6865  32.1455

          k =-0.1250 0.6250-0.3750 (   404 PWs)   bands (ev):

   -67.7747 -34.1371 -33.9390 -33.8007  14.4608  16.1154  16.4859  18.6414
    19.5868  21.7180  25.7759  31.4458

          k =-0.2500 0.2500 0.1250 (   400 PWs)   bands (ev):

   -67.8170 -33.9853 -33.8203 -33.7711  11.6683  16.3834  16.5267  18.7726
    18.8065  19.0790  33.3150  35.9882

          k =-0.2500 0.7500-0.3750 (   406 PWs)   bands (ev):

   -67.7711 -34.0898 -33.9988 -33.8136  15.1581  15.6712  16.1822  18.7893
    19.2694  22.9596  26.9158  27.9378

          k =-0.3750 0.3750 0.1250 (   406 PWs)   bands (ev):

   -67.7923 -34.1052 -33.8796 -33.7727  13.5114  15.9636  16.5639  18.8908
    19.2171  20.0526  28.3627  34.3026

          k =-0.3750 0.2500 0.2500 (   402 PWs)   bands (ev):

   -67.7959 -34.0701 -33.8635 -33.7997  13.4623  15.9622  16.0807  18.8678
    19.2157  20.2300  31.0079  31.6531

          k = 0.5000-0.5000 0.1250 (   406 PWs)   bands (ev):

   -67.7820 -34.1535 -33.9050 -33.7733  14.0471  15.8035  17.2659  18.9620
    19.2773  20.8674  25.7490  33.6629

          k = 0.5000-0.6250 0.2500 (   410 PWs)   bands (ev):

   -67.7810 -34.1018 -33.9322 -33.8097  14.6531  15.7375  16.2489  19.0108
    19.2885  22.0729  26.8044  30.1477

          k = 0.3750-0.6250 0.3750 (   408 PWs)   bands (ev):

   -67.7763 -34.0272 -34.0272 -33.8252  15.2640  15.8182  15.8182  19.1839
    19.1839  25.0824  25.0824  27.2181

          k = 0.0000 0.0000 0.3750 (   398 PWs)   bands (ev):

   -67.8133 -33.9063 -33.8456 -33.8456  11.6860  17.2008  17.2008  17.5369
    17.9103  19.4953  35.9594  37.1924

          k = 0.0000-0.1250 0.5000 (   408 PWs)   bands (ev):

   -67.7871 -34.0252 -33.9006 -33.8563  13.3990  16.4158  17.0326  17.8588
    18.8627  19.8821  31.4805  34.6870

          k = 0.0000-0.2500 0.6250 (   416 PWs)   bands (ev):

   -67.7685 -34.1205 -33.9392 -33.8514  14.5438  15.9732  16.8037  18.1823
    19.8228  21.3642  26.8399  33.0320

          k =-0.1250-0.1250 0.6250 (   414 PWs)   bands (ev):

   -67.7659 -34.0772 -33.9703 -33.8781  14.6463  15.6978  17.0885  18.2630
    19.3564  21.3990  29.5065  29.8710

          k =-0.1250 0.7500-0.2500 (   410 PWs)   bands (ev):

   -67.7571 -34.0976 -34.0092 -33.8778  15.1247  15.4672  16.8215  18.6199
    19.5975  23.8359  25.9870  28.9457

          k = 0.6250-0.6250 0.3750 (   408 PWs)   bands (ev):

   -67.7836 -34.0779 -33.8762 -33.8762  15.0086  15.6577  15.6577  19.2134
    19.2134  22.1675  29.4438  29.4438

          k = 0.5000-0.5000 0.3750 (   408 PWs)   bands (ev):

   -67.7785 -34.0390 -33.9502 -33.8814  15.3252  15.5723  15.9312  19.2470
    19.3100  24.4071  26.1238  28.9019

          k = 0.0000 0.0000 0.6250 (   414 PWs)   bands (ev):

   -67.7637 -34.0186 -33.9585 -33.9585  14.3731  15.7747  17.9886  17.9886
    18.9215  20.8341  31.7788  31.7788

          k = 0.0000-0.1250 0.7500 (   410 PWs)   bands (ev):

   -67.7472 -34.0784 -33.9993 -33.9652  14.8227  15.1240  18.1696  18.4569
    19.6971  23.2405  27.6457  29.8872

          k =-0.1250 0.8750-0.1250 (   415 PWs)   bands (ev):

   -67.7394 -34.0579 -34.0579 -33.9751  14.8209  14.8209  18.2438  19.4833
    19.4833  26.2682  26.2682  27.2179

          k = 0.0000 0.0000 0.8750 (   398 PWs)   bands (ev):

   -67.7321 -34.0517 -34.0414 -34.0414  14.5444  14.6066  19.4276  19.4276
    19.6654  25.4754  27.7284  27.7284

     the Fermi energy is    17.2442 ev

!    total energy              =    -253.47218780 Ry
     Harris-Foulkes estimate   =    -253.47218780 Ry
     estimated scf accuracy    <          1.9E-12 Ry

     The total energy is the sum of the following terms:

     one-electron contribution =    -122.77146273 Ry
     hartree contribution      =      70.69794280 Ry
     xc contribution           =     -29.51096395 Ry
     ewald contribution        =    -171.88999319 Ry
     smearing contrib. (-TS)   =       0.00228927 Ry

     total magnetization       =     2.29 Bohr mag/cell
     absolute magnetization    =     2.44 Bohr mag/cell

     convergence has been achieved in  12 iterations

     Writing output data file Fe.save

     init_run     :      1.20s CPU      1.21s WALL (       1 calls)
     electrons    :     10.31s CPU     10.48s WALL (       1 calls)

     Called by init_run:
     wfcinit      :      0.29s CPU      0.30s WALL (       1 calls)
     potinit      :      0.06s CPU      0.06s WALL (       1 calls)

     Called by electrons:
     c_bands      :      7.21s CPU      7.33s WALL (      12 calls)
     sum_band     :      1.87s CPU      1.91s WALL (      12 calls)
     v_of_rho     :      0.72s CPU      0.73s WALL (      13 calls)
     newd         :      0.51s CPU      0.51s WALL (      13 calls)
     mix_rho      :      0.03s CPU      0.03s WALL (      12 calls)

     Called by c_bands:
     init_us_2    :      0.45s CPU      0.47s WALL (    1300 calls)
     cegterg      :      6.49s CPU      6.63s WALL (     624 calls)

     Called by *egterg:
     h_psi        :      4.32s CPU      4.41s WALL (    1915 calls)
     s_psi        :      0.34s CPU      0.34s WALL (    1915 calls)
     g_psi        :      0.05s CPU      0.07s WALL (    1239 calls)
     cdiaghg      :      0.54s CPU      0.63s WALL (    1863 calls)

     Called by h_psi:
     add_vuspsi   :      0.36s CPU      0.34s WALL (    1915 calls)

     General routines
     calbec       :      0.39s CPU      0.47s WALL (    2539 calls)
     fft          :      0.12s CPU      0.13s WALL (     393 calls)
     ffts         :      0.01s CPU      0.01s WALL (      50 calls)
     fftw         :      3.23s CPU      3.30s WALL (   44110 calls)
     interpolate  :      0.03s CPU      0.03s WALL (      50 calls)
     davcio       :      0.08s CPU      0.07s WALL (    1924 calls)

     Parallel routines
     fft_scatter  :      0.48s CPU      0.49s WALL (   44553 calls)

     PWSCF        :    11.74s CPU        11.92s WALL


   This run was terminated on:   9:42:27  15Feb2014            

=------------------------------------------------------------------------------=
   JOB DONE.
=------------------------------------------------------------------------------=
