
     Program PWSCF v.6.5 starts on 26Jul2020 at 15:34:49 

     This program is part of the open-source Quantum ESPRESSO suite
     for quantum simulation of materials; please cite
         "P. Giannozzi et al., J. Phys.:Condens. Matter 21 395502 (2009);
         "P. Giannozzi et al., J. Phys.:Condens. Matter 29 465901 (2017);
          URL http://www.quantum-espresso.org", 
     in publications or presentations arising from this work. More details at
     http://www.quantum-espresso.org/quote

     Serial multi-threaded version, running on    2 processor cores
     Fft bands division:     nmany     =       1
     Reading input from graphene.scf

     Current dimensions of program PWSCF are:
     Max number of different atomic species (ntypx) = 10
     Max number of k-points (npk) =  40000
     Max angular momentum in pseudopotentials (lmaxx) =  3
     file C.pbe-mt_fhi.UPF: wavefunction(s)  4f renormalized
     Found symmetry operation: I + ( -0.0000  0.5000  0.0000)
     This is a supercell, fractional translations are disabled

     G-vector sticks info
     --------------------
     sticks:   dense  smooth     PW     G-vecs:    dense   smooth      PW
     Sum         955     955    271                72637    72637   11155



     bravais-lattice index     =            4
     lattice parameter (alat)  =       9.2956  a.u.
     unit-cell volume          =    2121.1762 (a.u.)^3
     number of atoms/cell      =            8
     number of atomic types    =            1
     number of electrons       =        32.00
     number of Kohn-Sham states=           40
     kinetic-energy cutoff     =      40.0000  Ry
     charge density cutoff     =     160.0000  Ry
     convergence threshold     =      1.0E-08
     mixing beta               =       0.7000
     number of iterations used =            8  plain     mixing
     Exchange-correlation= PBE
                           (   1   4   3   4   0   0   0)

     celldm(1)=   9.295612  celldm(2)=   0.000000  celldm(3)=   3.049384
     celldm(4)=   0.000000  celldm(5)=   0.000000  celldm(6)=   0.000000

     crystal axes: (cart. coord. in units of alat)
               a(1) = (   1.000000   0.000000   0.000000 )  
               a(2) = (  -0.500000   0.866025   0.000000 )  
               a(3) = (   0.000000   0.000000   3.049384 )  

     reciprocal axes: (cart. coord. in units 2 pi/alat)
               b(1) = (  1.000000  0.577350 -0.000000 )  
               b(2) = (  0.000000  1.154701  0.000000 )  
               b(3) = (  0.000000 -0.000000  0.327935 )  


     PseudoPot. # 1 for C  read from file:
     ../../ppt/C.pbe-mt_fhi.UPF
     MD5 check sum: 058ca341f9d6d5327d9962fd88a91b65
     Pseudo is Norm-conserving, Zval =  4.0
     Generated using FHI98PP, converted with fhi2upf.x v.5.0.2
     Using radial grid of  461 points,  3 beta functions with: 
                l(1) =   0
                l(2) =   1
                l(3) =   3

     atomic species   valence    mass     pseudopotential
        C              4.00    12.01078     C ( 1.00)

     12 Sym. Ops. (no inversion) found



   Cartesian axes

     site n.     atom                  positions (alat units)
         1           C   tau(   1) = (  -0.2500000   0.7216878   0.0000000  )
         2           C   tau(   2) = (  -0.0000000   0.2886751   0.0000000  )
         3           C   tau(   3) = (   0.2500000   0.7216878   0.0000000  )
         4           C   tau(   4) = (   0.5000000   0.0000000   0.0000000  )
         5           C   tau(   5) = (  -0.2500000   0.4330127   0.0000000  )
         6           C   tau(   6) = (   0.2500000   0.4330127   0.0000000  )
         7           C   tau(   7) = (   0.5000000   0.2886751   0.0000000  )
         8           C   tau(   8) = (   0.0000000   0.0000000   0.0000000  )

     number of k points=    27  Gaussian smearing, width (Ry)=  0.0001
                       cart. coord. in units 2pi/alat
        k(    1) = (   0.0000000   0.0000000   0.0000000), wk =   0.0088889
        k(    2) = (   0.0000000   0.0769800   0.0000000), wk =   0.0533333
        k(    3) = (   0.0000000   0.1539601   0.0000000), wk =   0.0533333
        k(    4) = (   0.0000000   0.2309401   0.0000000), wk =   0.0533333
        k(    5) = (   0.0000000   0.3079201   0.0000000), wk =   0.0533333
        k(    6) = (   0.0000000   0.3849002   0.0000000), wk =   0.0533333
        k(    7) = (   0.0000000   0.4618802   0.0000000), wk =   0.0533333
        k(    8) = (   0.0000000   0.5388603   0.0000000), wk =   0.0533333
        k(    9) = (   0.0666667   0.1154701   0.0000000), wk =   0.0533333
        k(   10) = (   0.0666667   0.1924501   0.0000000), wk =   0.1066667
        k(   11) = (   0.0666667   0.2694301   0.0000000), wk =   0.1066667
        k(   12) = (   0.0666667   0.3464102   0.0000000), wk =   0.1066667
        k(   13) = (   0.0666667   0.4233902   0.0000000), wk =   0.1066667
        k(   14) = (   0.0666667   0.5003702   0.0000000), wk =   0.1066667
        k(   15) = (   0.0666667   0.5773503   0.0000000), wk =   0.0533333
        k(   16) = (   0.1333333   0.2309401   0.0000000), wk =   0.0533333
        k(   17) = (   0.1333333   0.3079201   0.0000000), wk =   0.1066667
        k(   18) = (   0.1333333   0.3849002   0.0000000), wk =   0.1066667
        k(   19) = (   0.1333333   0.4618802   0.0000000), wk =   0.1066667
        k(   20) = (   0.1333333   0.5388603   0.0000000), wk =   0.1066667
        k(   21) = (   0.2000000   0.3464102   0.0000000), wk =   0.0533333
        k(   22) = (   0.2000000   0.4233902   0.0000000), wk =   0.1066667
        k(   23) = (   0.2000000   0.5003702   0.0000000), wk =   0.1066667
        k(   24) = (   0.2000000   0.5773503   0.0000000), wk =   0.0533333
        k(   25) = (   0.2666667   0.4618802   0.0000000), wk =   0.0533333
        k(   26) = (   0.2666667   0.5388603   0.0000000), wk =   0.1066667
        k(   27) = (   0.3333333   0.5773503   0.0000000), wk =   0.0177778

     Dense  grid:    72637 G-vectors     FFT dimensions: (  40,  40, 120)

     Estimated max dynamical RAM per process >     246.60 MB

     Initial potential from superposition of free atoms

     starting charge   31.99966, renormalised to   32.00000

     negative rho (up, down):  5.796E-04 0.000E+00
     Starting wfcs are  128 randomized atomic wfcs

     total cpu time spent up to now is       17.0 secs

     Self-consistent Calculation

     iteration #  1     ecut=    40.00 Ry     beta= 0.70
     Davidson diagonalization with overlap
     ethr =  1.00E-02,  avg # of iterations =  9.1

     negative rho (up, down):  1.366E-04 0.000E+00

     total cpu time spent up to now is       41.1 secs

     total energy              =     -91.07352534 Ry
     estimated scf accuracy    <       0.78988091 Ry

     iteration #  2     ecut=    40.00 Ry     beta= 0.70
     Davidson diagonalization with overlap
     ethr =  2.47E-03,  avg # of iterations =  4.4

     negative rho (up, down):  2.326E-05 0.000E+00

     total cpu time spent up to now is       56.1 secs

     total energy              =     -91.18654914 Ry
     estimated scf accuracy    <       0.00940709 Ry

     iteration #  3     ecut=    40.00 Ry     beta= 0.70
     Davidson diagonalization with overlap
     ethr =  2.94E-05,  avg # of iterations =  9.6

     total cpu time spent up to now is       77.8 secs

     total energy              =     -91.18755474 Ry
     estimated scf accuracy    <       0.00068796 Ry

     iteration #  4     ecut=    40.00 Ry     beta= 0.70
     Davidson diagonalization with overlap
     ethr =  2.15E-06,  avg # of iterations =  4.0

     total cpu time spent up to now is       92.5 secs

     total energy              =     -91.18758351 Ry
     estimated scf accuracy    <       0.00000324 Ry

     iteration #  5     ecut=    40.00 Ry     beta= 0.70
     Davidson diagonalization with overlap
     ethr =  1.01E-08,  avg # of iterations =  4.0

     total cpu time spent up to now is      108.6 secs

     total energy              =     -91.18758598 Ry
     estimated scf accuracy    <       0.00000965 Ry

     iteration #  6     ecut=    40.00 Ry     beta= 0.70
     Davidson diagonalization with overlap
     ethr =  1.01E-08,  avg # of iterations =  1.0

     total cpu time spent up to now is      120.9 secs

     total energy              =     -91.18758685 Ry
     estimated scf accuracy    <       0.00000009 Ry

     iteration #  7     ecut=    40.00 Ry     beta= 0.70
     Davidson diagonalization with overlap
     ethr =  2.82E-10,  avg # of iterations =  2.0

     total cpu time spent up to now is      135.7 secs

     End of self-consistent calculation

          k = 0.0000 0.0000 0.0000 (  9069 PWs)   bands (ev):

   -21.2886 -16.0031 -16.0030 -16.0030 -14.9876 -14.9876 -14.9875  -9.3687
    -8.1830  -8.1830  -8.1830  -4.7939  -4.7939  -4.0815  -4.0815  -4.0815
    -0.0214  -0.0213  -0.0213   1.5314   2.4270   2.8865   4.7704   5.6026
     5.7271   5.7272   5.7272   6.6276   6.6276   8.7196   9.4337   9.4337
     9.4337   9.5847   9.5847   9.5847   9.8195   9.8250  10.3240  10.3240

          k = 0.0000 0.0770 0.0000 (  9051 PWs)   bands (ev):

   -21.2621 -16.3714 -16.1010 -16.1010 -14.8461 -14.8461 -14.5794  -9.3370
    -8.2622  -8.2622  -8.1569  -4.8975  -4.8484  -4.2487  -4.1015  -4.1014
     0.0267   0.0267   0.1875   1.5673   2.4631   2.9230   4.8063   5.6376
     5.7400   5.8493   5.8493   6.6455   6.7434   8.5045   8.7546   9.0205
     9.0205   9.4367   9.7287   9.8615   9.9360   9.9361  10.0326  10.0576

          k = 0.0000 0.1540 0.0000 (  9076 PWs)   bands (ev):

   -21.1828 -16.9756 -16.3017 -16.3017 -14.5163 -14.5163 -13.8620  -9.2419
    -8.4988  -8.4988  -8.0765  -5.2098  -5.0118  -4.6694  -4.1553  -4.1553
     0.1616   0.1616   0.7302   1.6748   2.5717   3.0324   4.9142   5.7425
     5.7768   6.2050   6.2050   6.6877   7.0847   7.5636   8.4959   8.6054
     8.6054   8.8593   9.0531   9.4521   9.5028   9.5028   9.9699  10.1402

          k = 0.0000 0.2309 0.0000 (  9082 PWs)   bands (ev):

   -21.0507 -17.5813 -16.5090 -16.5090 -14.0970 -14.0970 -13.0652  -9.0868
    -8.8577  -8.8576  -7.9473  -5.7030  -5.2650  -5.2103  -4.2294  -4.2294
     0.3635   0.3636   1.4725   1.8540   2.7523   3.2148   5.0933   5.8329
     5.9167   6.6917   6.7215   6.7657   6.7657   7.6141   7.6271   8.1441
     8.2574   8.2574   8.9924   9.0422   9.1220   9.1220   9.7776   9.7777

          k = 0.0000 0.3079 0.0000 (  9066 PWs)   bands (ev):

   -20.8662 -18.1548 -16.6887 -16.6887 -13.6283 -13.6283 -12.2277  -9.3046
    -9.3046  -8.8684  -7.7689  -6.3346  -5.7883  -5.5766  -4.3080  -4.3080
     0.5964   0.5965   2.1049   2.3221   3.0050   3.4702   5.3440   5.7714
     6.0255   6.1560   6.7277   6.7977   7.3079   7.4847   7.4847   7.9886
     7.9886   8.3379   8.4199   8.8000   8.8000   9.0871   9.2779   9.4871

          k = 0.0000 0.3849 0.0000 (  9056 PWs)   bands (ev):

   -20.6295 -18.6867 -16.8286 -16.8286 -13.1378 -13.1378 -11.3611  -9.8005
    -9.8004  -8.5879  -7.5452  -7.0700  -6.3596  -5.9270  -4.3797  -4.3797
     0.8267   0.8268   2.4274   3.2298   3.3294   3.7986   5.0971   5.6649
     6.0509   6.0536   6.4294   6.5500   6.7296   7.7175   7.7419   7.7419
     8.3487   8.3748   8.3749   8.5425   8.5425   9.1903   9.1982   9.2705

          k = 0.0000 0.4619 0.0000 (  9042 PWs)   bands (ev):

   -20.3412 -19.1733 -16.9235 -16.9235 -12.6631 -12.6631 -10.4837 -10.2897
   -10.2896  -8.2485  -7.8731  -7.2753  -6.9016  -6.2848  -4.4324  -4.4324
     1.0102   1.0102   2.8212   3.7245   4.1504   4.1997   4.4266   5.3842
     5.8280   6.0499   6.1968   6.5159   6.9329   6.9502   7.6097   7.6097
     7.6770   8.3589   8.3589   8.5218   9.1020   9.1020   9.3246   9.3246

          k = 0.0000 0.5389 0.0000 (  9068 PWs)   bands (ev):

   -20.0019 -19.6121 -16.9715 -16.9714 -12.3119 -12.3119 -10.6529 -10.6529
    -9.6020  -8.7257  -7.8524  -7.4019  -6.9715  -6.6382  -4.4601  -4.4600
     1.1110   1.1110   3.2862   3.8217   4.1867   4.6714   4.6735   5.1849
     5.2190   6.0249   6.3107   6.4284   6.5605   7.0752   7.3887   7.5405
     7.5405   7.9176   8.2621   8.2621   9.0438   9.0438  10.2296  10.2484

          k = 0.0667 0.1155 0.0000 (  9085 PWs)   bands (ev):

   -21.2092 -16.6506 -16.6506 -15.9354 -14.9208 -14.2194 -14.2194  -9.2742
    -8.5256  -8.2133  -8.2133  -5.1031  -4.9633  -4.4132  -4.4132  -3.9878
    -0.0472   0.4192   0.4192   1.6390   2.5355   2.9960   4.8782   5.7076
     5.8745   5.8745   6.1920   6.6876   6.9592   8.0520   8.0520   8.8243
     8.9791   8.9791   9.5268   9.5409   9.5615   9.5615   9.6839   9.9338

          k = 0.0667 0.1925 0.0000 (  9080 PWs)   bands (ev):

   -21.1035 -17.2634 -16.9038 -15.9641 -14.7151 -13.8015 -13.4556  -9.1493
    -8.9092  -8.4161  -8.1076  -5.4977  -5.1819  -4.9087  -4.5776  -3.9119
    -0.0293   0.7040   1.0752   1.7823   2.6800   3.1419   5.0216   5.8475
     5.9218   6.2417   6.7414   6.7505   7.1446   7.3681   7.6681   8.0691
     8.5785   8.6168   8.9631   9.1616   9.1796   9.2170  10.0037  10.0784

          k = 0.0667 0.2694 0.0000 (  9077 PWs)   bands (ev):

   -20.9452 -17.8544 -17.1179 -16.0933 -14.3288 -13.3425 -12.6382  -9.3870
    -8.9619  -8.7499  -7.9496  -6.0494  -5.4761  -5.4760  -4.7282  -3.8737
     0.0613   1.0104   1.8776   1.9974   2.8967   3.3608   5.2367   5.9658
     6.0560   6.3294   6.7947   6.8049   7.2207   7.3628   7.4576   7.7441
     7.9554   8.2398   8.6687   8.8344   8.9069   9.1726   9.5006   9.6296

          k = 0.0667 0.3464 0.0000 (  9062 PWs)   bands (ev):

   -20.7346 -18.4074 -17.2878 -16.2278 -13.8647 -12.8592 -11.7873  -9.9208
    -9.1672  -8.7121  -7.7464  -6.7192  -6.0544  -5.8142  -4.8575  -3.8653
     0.1987   1.3079   2.2841   2.7592   3.1854   3.6527   5.4812   5.5227
     6.1283   6.3255   6.4392   6.8069   6.9460   7.0732   7.5876   7.9660
     8.0301   8.2838   8.5812   8.6783   8.6965   8.7323   9.3001   9.4498

          k = 0.0667 0.4234 0.0000 (  9056 PWs)   bands (ev):

   -20.4721 -18.9167 -17.4105 -16.3340 -13.3769 -12.3747 -10.9163 -10.4615
    -9.6216  -8.4031  -7.5002  -7.4835  -6.6125  -6.1775  -4.9537  -3.8715
     0.3392   1.5638   2.6424   3.5452   3.6761   4.0175   4.7819   5.7296
     5.8775   6.1464   6.3006   6.5814   6.8533   6.9103   7.2847   7.7622
     8.0280   8.3516   8.4678   8.4869   8.8778   9.0353   9.2409   9.5586

          k = 0.0667 0.5004 0.0000 (  9067 PWs)   bands (ev):

   -20.1583 -19.3795 -17.4846 -16.4000 -12.9371 -11.9510 -10.9361 -10.0400
   -10.0370  -8.3050  -8.0351  -7.2139  -7.1348  -6.5418  -5.0133  -3.8802
     0.4431   1.7364   3.0719   3.9747   4.1428   4.4551   4.5616   5.1269
     5.5457   6.2530   6.3652   6.5140   6.5835   6.8063   7.1868   7.3911
     7.6348   8.2378   8.2814   8.3682   8.8595   9.3759   9.7924   9.9027

          k = 0.0667 0.5774 0.0000 (  9046 PWs)   bands (ev):

   -19.7938 -19.7937 -17.5091 -16.4225 -12.7273 -11.7534 -11.1601 -10.2340
    -9.1621  -9.1621  -7.6105  -7.6105  -6.8894  -6.8893  -5.0311  -3.8829
     0.4838   1.7974   3.5722   3.5723   4.4645   4.4645   4.9650   4.9650
     5.5688   5.5688   6.4836   6.4836   6.7714   6.8266   6.8266   7.5915
     7.6713   7.6713   8.2461   8.3338   8.7975   9.7435   9.8747  10.0716

          k = 0.1333 0.2309 0.0000 (  9077 PWs)   bands (ev):

   -20.9716 -17.5079 -17.5079 -15.7321 -14.7243 -13.0119 -13.0119  -9.4154
    -8.9927  -8.2862  -8.2862  -5.9331  -5.4607  -5.1206  -5.1206  -3.6975
    -0.1475   1.4380   1.4380   1.9616   2.8607   3.3243   5.2009   6.0227
     6.2888   6.2888   6.8060   6.8060   6.8717   7.4451   7.7047   7.7047
     7.7625   8.2532   8.2532   8.7532   9.1368   9.8011   9.9628   9.9787

          k = 0.1333 0.3079 0.0000 (  9074 PWs)   bands (ev):

   -20.7872 -18.0799 -17.7060 -15.6915 -14.4655 -12.5400 -12.1814  -9.9774
    -8.7753  -8.5887  -8.1065  -6.4994  -5.8086  -5.6997  -5.2987  -3.5307
    -0.1946   1.7922   2.2126   2.2764   3.1132   3.5798   5.4514   5.9370
     6.2665   6.4295   6.4688   6.8923   6.9281   6.9839   7.4054   7.4181
     7.9634   8.1907   8.2733   8.2834   9.1734   9.3784   9.6039   9.8585

          k = 0.1333 0.3849 0.0000 (  9073 PWs)   bands (ev):

   -20.5508 -18.6109 -17.8559 -15.7490 -14.0429 -12.0586 -11.3289 -10.5609
    -8.9724  -8.4957  -7.8757  -7.1763  -6.2707  -6.1864  -5.4379  -3.4126
    -0.1871   2.1073   2.5351   3.1673   3.4376   3.9082   5.2089   5.7725
     6.1471   6.2751   6.4886   6.5696   6.6813   7.0414   7.1739   7.5124
     7.6257   7.7784   8.4413   8.9442   9.1531   9.4213   9.4261   9.5090

          k = 0.1333 0.4619 0.0000 (  9053 PWs)   bands (ev):

   -20.2628 -19.0964 -17.9565 -15.8118 -13.5849 -11.6053 -11.1098 -10.4626
    -9.3752  -8.1564  -7.9341  -7.6016  -6.8114  -6.5695  -5.5317  -3.3422
    -0.1554   2.3499   2.9291   3.8327   4.0745   4.3095   4.5356   5.4757
     5.9462   6.1364   6.1578   6.6437   6.7543   6.8431   7.0146   7.1295
     7.5896   7.7729   8.5285   8.6298   9.2324   9.2410   9.2557   9.7314

          k = 0.1333 0.5389 0.0000 (  9064 PWs)   bands (ev):

   -19.9238 -19.5347 -18.0069 -15.8482 -13.2305 -11.5081 -11.2763  -9.6846
    -9.5991  -8.7493  -7.7607  -7.3109  -7.2889  -6.9430  -5.5785  -3.3098
    -0.1295   2.4830   3.3942   3.9300   4.2953   4.7580   4.7836   5.0932
     5.3299   5.8952   6.0663   6.6447   6.7540   6.8483   6.9329   7.1720
     7.5072   7.5187   8.0280   9.0803   9.1702   9.1752   9.3785  10.1743

          k = 0.2000 0.3464 0.0000 (  9073 PWs)   bands (ev):

   -20.5770 -18.2567 -18.2567 -15.3947 -14.4251 -11.7105 -11.7104 -10.5916
    -8.5267  -8.3779  -8.3779  -7.0481  -6.2160  -5.8776  -5.8776  -3.2205
    -0.4027   2.4994   2.6426   2.6426   3.4016   3.8718   5.7072   5.7072
     5.7373   6.5469   6.6309   6.6309   6.9820   6.9820   7.1854   7.1854
     7.2154   7.5923   8.6402   8.9107   8.9108   9.1642   9.6521   9.6628

          k = 0.2000 0.4234 0.0000 (  9059 PWs)   bands (ev):

   -20.3151 -18.7641 -18.3836 -15.2862 -14.1461 -11.2480 -11.1922 -10.8662
    -8.7225  -8.2185  -8.1162  -7.6891  -6.6495  -6.4343  -6.0070  -2.9665
    -0.5603   2.8578   2.9466   3.5250   3.7614   4.2368   4.9995   5.5335
     5.9226   6.0930   6.4210   6.4388   6.8886   6.8974   6.9692   7.1208
     7.3864   7.7611   8.2173   8.7169   9.0927   9.1158   9.3606   9.6254

          k = 0.2000 0.5004 0.0000 (  9045 PWs)   bands (ev):

   -20.0019 -19.2252 -18.4598 -15.2784 -13.7773 -11.6991 -10.8502 -10.0238
    -9.0584  -8.4143  -7.8511  -7.8092  -7.0696  -6.9546  -6.0849  -2.7997
    -0.6593   3.1511   3.2875   4.1914   4.3591   4.4040   4.6747   5.2884
     5.4282   5.7681   6.1200   6.3201   6.5283   6.8629   7.2204   7.2243
     7.5201   7.5862   8.4571   8.5824   8.5972   9.1377   9.5303   9.7585

          k = 0.2000 0.5774 0.0000 (  9050 PWs)   bands (ev):

   -19.6384 -19.6384 -18.4854 -15.2829 -13.5866 -11.9300 -10.6688  -9.2183
    -9.1997  -9.1997  -7.4591  -7.4591  -7.4292  -7.4292  -6.1124  -2.7408
    -0.6947   3.2240   3.7881   3.7881   4.6809   4.6809   5.1853   5.1853
     5.3061   5.3061   5.3930   6.2795   6.8269   7.0215   7.0215   7.2917
     7.2917   7.9051   7.9051   8.5564   9.0575   9.1043   9.5505  10.0061

          k = 0.2667 0.4619 0.0000 (  9055 PWs)   bands (ev):

   -20.0280 -18.8666 -18.8666 -14.9232 -14.1284 -11.7594 -10.4394 -10.4394
    -8.4130  -8.4129  -8.2697  -7.8822  -7.1480  -6.5458  -6.5457  -2.5552
    -0.9107   3.2519   3.7942   3.7942   4.1564   4.6384   4.8588   4.8588
     5.7673   5.7673   6.2015   6.2792   6.2792   6.4839   7.2726   7.7403
     7.8440   7.8440   8.0637   8.0637   8.9580   8.9580   9.1361   9.3310

          k = 0.2667 0.5389 0.0000 (  9054 PWs)   bands (ev):

   -19.6903 -19.3027 -18.9180 -14.7628 -13.9992 -12.1444 -10.1388  -9.6578
    -8.9273  -8.6566  -8.0492  -7.6239  -7.4884  -7.0419  -6.6018  -2.2531
    -1.1781   3.7171   3.9415   4.2530   4.6205   4.6268   4.7882   5.1128
     5.1663   5.4433   5.6599   5.6868   6.2072   6.9437   7.4712   7.6798
     7.8723   7.9853   8.0035   8.3815   8.5191   8.9393   8.9980   9.7547

          k = 0.3333 0.5774 0.0000 (  9078 PWs)   bands (ev):

   -19.3286 -19.3286 -19.3285 -14.3207 -14.3204 -12.3230  -9.4954  -9.4954
    -9.4954  -8.1707  -8.1707  -8.1707  -7.0712  -7.0712  -7.0712  -1.7110
    -1.7109   4.2175   4.2175   4.2175   4.7103   4.7103   4.7103   5.1198
     5.1198   5.1198   5.6237   5.6237   5.6237   7.4321   7.4321   7.4321
     8.1616   8.1616   8.1616   8.4908   8.4908   8.4908   8.9413   9.8695

     the Fermi energy is    -1.7109 ev

!    total energy              =     -91.18758686 Ry
     estimated scf accuracy    <          4.8E-09 Ry
     smearing contrib. (-TS)   =      -0.00000100 Ry
     internal energy E=F+TS    =     -91.18758586 Ry

     The total energy is F=E-TS. E is the sum of the following terms:
     one-electron contribution =    -632.53191138 Ry
     hartree contribution      =     321.74311538 Ry
     xc contribution           =     -28.08179646 Ry
     ewald contribution        =     247.68300659 Ry

     convergence has been achieved in   7 iterations

     Writing output data file ../tmp/grp.save/

     init_run     :     29.30s CPU     16.91s WALL (       1 calls)
     electrons    :    229.76s CPU    118.74s WALL (       1 calls)

     Called by init_run:
     wfcinit      :     29.08s CPU     16.75s WALL (       1 calls)
     potinit      :      0.12s CPU      0.08s WALL (       1 calls)
     hinit0       :      0.06s CPU      0.04s WALL (       1 calls)

     Called by electrons:
     c_bands      :    198.84s CPU    103.18s WALL (       7 calls)
     sum_band     :     30.14s CPU     15.14s WALL (       7 calls)
     v_of_rho     :      0.74s CPU      0.40s WALL (       8 calls)
     mix_rho      :      0.10s CPU      0.05s WALL (       7 calls)

     Called by c_bands:
     init_us_2    :      2.45s CPU      1.33s WALL (     405 calls)
     cegterg      :    191.80s CPU     99.54s WALL (     189 calls)

     Called by *egterg:
     cdiaghg      :      2.72s CPU      1.66s WALL (    1112 calls)
     h_psi        :    191.83s CPU     96.47s WALL (    1139 calls)
     g_psi        :      0.93s CPU      0.47s WALL (     923 calls)

     Called by h_psi:
     h_psi:calbec :      9.06s CPU      4.59s WALL (    1139 calls)
     vloc_psi     :    171.65s CPU     86.20s WALL (    1139 calls)
     add_vuspsi   :     10.06s CPU      5.05s WALL (    1139 calls)

     General routines
     calbec       :      9.05s CPU      4.59s WALL (    1139 calls)
     fft          :      0.26s CPU      0.14s WALL (      79 calls)
     ffts         :      0.02s CPU      0.01s WALL (       7 calls)
     fftw         :    181.17s CPU     90.84s WALL (   55388 calls)


     PWSCF        :   4m19.35s CPU   2m15.88s WALL


   This run was terminated on:  15:37: 5  26Jul2020            

=------------------------------------------------------------------------------=
   JOB DONE.
=------------------------------------------------------------------------------=
