
     Program PWSCF v.6.5 starts on 26Jul2020 at 15:37: 5 

     This program is part of the open-source Quantum ESPRESSO suite
     for quantum simulation of materials; please cite
         "P. Giannozzi et al., J. Phys.:Condens. Matter 21 395502 (2009);
         "P. Giannozzi et al., J. Phys.:Condens. Matter 29 465901 (2017);
          URL http://www.quantum-espresso.org", 
     in publications or presentations arising from this work. More details at
     http://www.quantum-espresso.org/quote

     Serial multi-threaded version, running on    2 processor cores
     Fft bands division:     nmany     =       1
     Reading input from graphene.bands

     Current dimensions of program PWSCF are:
     Max number of different atomic species (ntypx) = 10
     Max number of k-points (npk) =  40000
     Max angular momentum in pseudopotentials (lmaxx) =  3

     Atomic positions and unit cell read from directory:
     ../tmp/grp.save/
     Atomic positions from file used, from input discarded

     file C.pbe-mt_fhi.UPF: wavefunction(s)  4f renormalized
     Found symmetry operation: I + (  0.0000  0.5000  0.0000)
     This is a supercell, fractional translations are disabled

     G-vector sticks info
     --------------------
     sticks:   dense  smooth     PW     G-vecs:    dense   smooth      PW
     Sum         955     955    271                72637    72637   11155



     bravais-lattice index     =            4
     lattice parameter (alat)  =       9.2956  a.u.
     unit-cell volume          =    2121.1762 (a.u.)^3
     number of atoms/cell      =            8
     number of atomic types    =            1
     number of electrons       =        32.00
     number of Kohn-Sham states=           44
     kinetic-energy cutoff     =      40.0000  Ry
     charge density cutoff     =     160.0000  Ry
     Exchange-correlation= PBE
                           (   1   4   3   4   0   0   0)

     celldm(1)=   9.295612  celldm(2)=   0.000000  celldm(3)=   3.049384
     celldm(4)=   0.000000  celldm(5)=   0.000000  celldm(6)=   0.000000

     crystal axes: (cart. coord. in units of alat)
               a(1) = (   1.000000   0.000000   0.000000 )  
               a(2) = (  -0.500000   0.866025   0.000000 )  
               a(3) = (   0.000000   0.000000   3.049384 )  

     reciprocal axes: (cart. coord. in units 2 pi/alat)
               b(1) = (  1.000000  0.577350 -0.000000 )  
               b(2) = (  0.000000  1.154701  0.000000 )  
               b(3) = (  0.000000 -0.000000  0.327935 )  


     PseudoPot. # 1 for C  read from file:
     ../../ppt/C.pbe-mt_fhi.UPF
     MD5 check sum: 058ca341f9d6d5327d9962fd88a91b65
     Pseudo is Norm-conserving, Zval =  4.0
     Generated using FHI98PP, converted with fhi2upf.x v.5.0.2
     Using radial grid of  461 points,  3 beta functions with: 
                l(1) =   0
                l(2) =   1
                l(3) =   3

     atomic species   valence    mass     pseudopotential
        C              4.00    12.01078     C ( 1.00)

     12 Sym. Ops. (no inversion) found



   Cartesian axes

     site n.     atom                  positions (alat units)
         1           C   tau(   1) = (  -0.2500000   0.7216878   0.0000000  )
         2           C   tau(   2) = (  -0.0000000   0.2886751   0.0000000  )
         3           C   tau(   3) = (   0.2500000   0.7216878   0.0000000  )
         4           C   tau(   4) = (   0.5000000   0.0000000   0.0000000  )
         5           C   tau(   5) = (  -0.2500000   0.4330127   0.0000000  )
         6           C   tau(   6) = (   0.2500000   0.4330127   0.0000000  )
         7           C   tau(   7) = (   0.5000000   0.2886751   0.0000000  )
         8           C   tau(   8) = (   0.0000000   0.0000000   0.0000000  )

     number of k points=    89  Gaussian smearing, width (Ry)=  0.0001
                       cart. coord. in units 2pi/alat
        k(    1) = (   0.6666667  -0.0000000   0.0000000), wk =   0.0004994
        k(    2) = (   0.6481481  -0.0320750   0.0000000), wk =   0.0009988
        k(    3) = (   0.6296296  -0.0641500   0.0000000), wk =   0.0014981
        k(    4) = (   0.6111111  -0.0962250   0.0000000), wk =   0.0019975
        k(    5) = (   0.5925926  -0.1283001   0.0000000), wk =   0.0024969
        k(    6) = (   0.5740741  -0.1603751   0.0000000), wk =   0.0029963
        k(    7) = (   0.5555556  -0.1924501   0.0000000), wk =   0.0034956
        k(    8) = (   0.5370370  -0.2245251   0.0000000), wk =   0.0039950
        k(    9) = (   0.5185185  -0.2566001   0.0000000), wk =   0.0044944
        k(   10) = (   0.5000000  -0.2886751   0.0000000), wk =   0.0049938
        k(   11) = (   0.4814815  -0.3207502   0.0000000), wk =   0.0054931
        k(   12) = (   0.4629630  -0.3528252   0.0000000), wk =   0.0059925
        k(   13) = (   0.4444444  -0.3849002   0.0000000), wk =   0.0064919
        k(   14) = (   0.4259259  -0.4169752   0.0000000), wk =   0.0069913
        k(   15) = (   0.4074074  -0.4490502   0.0000000), wk =   0.0074906
        k(   16) = (   0.3888889  -0.4811252   0.0000000), wk =   0.0079900
        k(   17) = (   0.3703704  -0.5132002   0.0000000), wk =   0.0084894
        k(   18) = (   0.3518519  -0.5452753   0.0000000), wk =   0.0089888
        k(   19) = (   0.3333333   0.5773503   0.0000000), wk =   0.0094881
        k(   20) = (   0.3148148   0.5452753   0.0000000), wk =   0.0099875
        k(   21) = (   0.2962963   0.5132002   0.0000000), wk =   0.0104869
        k(   22) = (   0.2777778   0.4811252   0.0000000), wk =   0.0109863
        k(   23) = (   0.2592593   0.4490502   0.0000000), wk =   0.0114856
        k(   24) = (   0.2407407   0.4169752   0.0000000), wk =   0.0119850
        k(   25) = (   0.2222222   0.3849002   0.0000000), wk =   0.0124844
        k(   26) = (   0.2037037   0.3528252   0.0000000), wk =   0.0129838
        k(   27) = (   0.1851852   0.3207501   0.0000000), wk =   0.0134831
        k(   28) = (   0.1666667   0.2886751   0.0000000), wk =   0.0139825
        k(   29) = (   0.1481481   0.2566001   0.0000000), wk =   0.0144819
        k(   30) = (   0.1296296   0.2245251   0.0000000), wk =   0.0149813
        k(   31) = (   0.1111111   0.1924501   0.0000000), wk =   0.0154806
        k(   32) = (   0.0925926   0.1603751   0.0000000), wk =   0.0159800
        k(   33) = (   0.0740741   0.1283001   0.0000000), wk =   0.0164794
        k(   34) = (   0.0555556   0.0962250   0.0000000), wk =   0.0169788
        k(   35) = (   0.0370370   0.0641500   0.0000000), wk =   0.0174782
        k(   36) = (   0.0185185   0.0320750   0.0000000), wk =   0.0179775
        k(   37) = (   0.0000000   0.0000000   0.0000000), wk =   0.0184769
        k(   38) = (   0.0312500   0.0180422   0.0000000), wk =   0.0189763
        k(   39) = (   0.0625000   0.0360844   0.0000000), wk =   0.0194757
        k(   40) = (   0.0937500   0.0541266   0.0000000), wk =   0.0199750
        k(   41) = (   0.1250000   0.0721688   0.0000000), wk =   0.0204744
        k(   42) = (   0.1562500   0.0902110   0.0000000), wk =   0.0209738
        k(   43) = (   0.1875000   0.1082532   0.0000000), wk =   0.0214732
        k(   44) = (   0.2187500   0.1262954   0.0000000), wk =   0.0219725
        k(   45) = (   0.2500000   0.1443376   0.0000000), wk =   0.0224719
        k(   46) = (   0.2812500   0.1623798   0.0000000), wk =   0.0229713
        k(   47) = (   0.3125000   0.1804220   0.0000000), wk =   0.0234707
        k(   48) = (   0.3437500   0.1984642   0.0000000), wk =   0.0239700
        k(   49) = (   0.3750000   0.2165064   0.0000000), wk =   0.0244694
        k(   50) = (   0.4062500   0.2345485   0.0000000), wk =   0.0249688
        k(   51) = (   0.4375000   0.2525907   0.0000000), wk =   0.0254682
        k(   52) = (   0.4687500   0.2706329   0.0000000), wk =   0.0259675
        k(   53) = (   0.5000000   0.2886751   0.0000000), wk =   0.0264669
        k(   54) = (  -0.4687500  -0.2706329   0.0000000), wk =   0.0269663
        k(   55) = (  -0.4375000  -0.2525907   0.0000000), wk =   0.0274657
        k(   56) = (  -0.4062500  -0.2345485   0.0000000), wk =   0.0279650
        k(   57) = (  -0.3750000  -0.2165064   0.0000000), wk =   0.0284644
        k(   58) = (  -0.3437500  -0.1984642   0.0000000), wk =   0.0289638
        k(   59) = (  -0.3125000  -0.1804220   0.0000000), wk =   0.0294632
        k(   60) = (  -0.2812500  -0.1623798   0.0000000), wk =   0.0299625
        k(   61) = (  -0.2500000  -0.1443376   0.0000000), wk =   0.0304619
        k(   62) = (  -0.2187500  -0.1262954   0.0000000), wk =   0.0309613
        k(   63) = (  -0.1875000  -0.1082532   0.0000000), wk =   0.0314607
        k(   64) = (  -0.1562500  -0.0902110   0.0000000), wk =   0.0319600
        k(   65) = (  -0.1250000  -0.0721688   0.0000000), wk =   0.0324594
        k(   66) = (  -0.0937500  -0.0541266   0.0000000), wk =   0.0329588
        k(   67) = (  -0.0625000  -0.0360844   0.0000000), wk =   0.0334582
        k(   68) = (  -0.0312500  -0.0180422   0.0000000), wk =   0.0339576
        k(   69) = (  -0.0151515   0.0262432   0.0000000), wk =   0.0344569
        k(   70) = (  -0.0303030   0.0524864   0.0000000), wk =   0.0349563
        k(   71) = (  -0.0454545   0.0787296   0.0000000), wk =   0.0354557
        k(   72) = (  -0.0606061   0.1049728   0.0000000), wk =   0.0359551
        k(   73) = (  -0.0757576   0.1312160   0.0000000), wk =   0.0364544
        k(   74) = (  -0.0909091   0.1574592   0.0000000), wk =   0.0369538
        k(   75) = (  -0.1060606   0.1837024   0.0000000), wk =   0.0374532
        k(   76) = (  -0.1212121   0.2099456   0.0000000), wk =   0.0379526
        k(   77) = (  -0.1363636   0.2361887   0.0000000), wk =   0.0384519
        k(   78) = (  -0.1515152   0.2624319   0.0000000), wk =   0.0389513
        k(   79) = (  -0.1666667   0.2886751   0.0000000), wk =   0.0394507
        k(   80) = (  -0.1818182   0.3149183   0.0000000), wk =   0.0399501
        k(   81) = (  -0.1969697   0.3411615   0.0000000), wk =   0.0404494
        k(   82) = (  -0.2121212   0.3674047   0.0000000), wk =   0.0409488
        k(   83) = (  -0.2272727   0.3936479   0.0000000), wk =   0.0414482
        k(   84) = (  -0.2424242   0.4198911   0.0000000), wk =   0.0419476
        k(   85) = (  -0.2575758   0.4461343   0.0000000), wk =   0.0424469
        k(   86) = (  -0.2727273   0.4723775   0.0000000), wk =   0.0429463
        k(   87) = (  -0.2878788   0.4986207   0.0000000), wk =   0.0434457
        k(   88) = (  -0.3030303   0.5248639   0.0000000), wk =   0.0439451
        k(   89) = (  -0.3181818   0.5511071   0.0000000), wk =   0.0444444

     Dense  grid:    72637 G-vectors     FFT dimensions: (  40,  40, 120)

     Estimated max dynamical RAM per process >      77.51 MB

     The potential is recalculated from file :
     ../tmp/grp.save/charge-density

     Starting wfcs are  128 randomized atomic wfcs

     Band Structure Calculation
     Davidson diagonalization with overlap
     c_bands:  1 eigenvalues not converged

     ethr =  3.13E-11,  avg # of iterations = 61.3

     total cpu time spent up to now is      703.0 secs

     End of band structure calculation

          k = 0.6667-0.0000 0.0000 (  9078 PWs)   bands (ev):

   -19.3284 -19.3283 -19.3283 -14.3204 -14.3202 -12.3228  -9.4952  -9.4952
    -9.4951  -8.1705  -8.1705  -8.1704  -7.0711  -7.0711  -7.0711  -1.7108
    -1.7107   4.2175   4.2175   4.2175   4.7104   4.7104   4.7104   5.1198
     5.1198   5.1198   5.6237   5.6237   5.6237   7.4321   7.4321   7.4321
     8.1617   8.1617   8.1617   8.4909   8.4909   8.4909   8.9413   9.8697
     9.8697   9.8697  11.2040  11.2040

          k = 0.6481-0.0321 0.0000 (  9056 PWs)   bands (ev):

   -19.4298 -19.4298 -19.1080 -14.5369 -14.1287 -12.2804  -9.8266  -9.3573
    -9.3573  -8.4618  -8.0026  -8.0026  -7.1878  -7.1878  -6.8188  -1.9778
    -1.4449   4.0769   4.0769   4.2938   4.5232   4.8958   4.8958   4.9901
     4.9901   5.4231   5.4800   5.4800   5.9361   7.2958   7.2958   7.7287
     8.0008   8.0008   8.3168   8.3168   8.4223   8.7511   8.9541   9.9098
     9.9098  10.0039  11.0428  11.0887

          k = 0.6296-0.0641 0.0000 (  9068 PWs)   bands (ev):

   -19.5196 -19.5195 -18.8772 -14.8029 -13.9274 -12.1777 -10.1582  -9.2708
    -9.2708  -8.7541  -7.8030  -7.8030  -7.2913  -7.2913  -6.5558  -2.2610
    -1.1657   3.8783   3.9527   3.9527   4.8438   4.8438   4.8450   5.0887
     5.0887   5.3532   5.3532   5.7413   6.2653   7.1766   7.1766   7.7674
     7.7674   8.0382   8.1195   8.1196   8.6839   8.9879   9.0385  10.0995
    10.0995  10.1340  10.6994  10.9872

          k = 0.6111-0.0962 0.0000 (  9050 PWs)   bands (ev):

   -19.5973 -19.5972 -18.6352 -15.0976 -13.7174 -12.0327 -10.4789  -9.2186
    -9.2186  -9.0442  -7.5853  -7.5852  -7.3815  -7.3815  -6.2818  -2.5577
    -0.8753   3.4668   3.8449   3.8449   4.7377   4.7377   5.1827   5.2317
     5.2317   5.2432   5.2432   6.0736   6.6113   7.0745   7.0745   7.4747
     7.4747   7.9731   7.9731   8.3592   8.9464   9.0323   9.3514  10.2622
    10.2773  10.3608  10.3608  10.8995

          k = 0.5926-0.1283 0.0000 (  9042 PWs)   bands (ev):

   -19.6631 -19.6631 -18.3831 -15.4076 -13.4966 -11.8552 -10.7948  -9.3338
    -9.1904  -9.1903  -7.4574  -7.4574  -7.3756  -7.3755  -5.9977  -2.8641
    -0.5704   3.0618   3.7535   3.7535   4.6463   4.6463   5.1500   5.1500
     5.3501   5.3501   5.5363   6.4192   6.9740   6.9895   6.9895   7.1739
     7.1739   7.8656   7.8657   8.6893   9.0707   9.2101   9.6875   9.8217
    10.3863  10.6488  10.6488  10.8256

          k = 0.5741-0.1604 0.0000 (  9058 PWs)   bands (ev):

   -19.7171 -19.7170 -18.1207 -15.7250 -13.2675 -11.6563 -11.1022  -9.6198
    -9.1749  -9.1748  -7.5207  -7.5207  -7.1854  -7.1854  -5.7052  -3.1784
    -0.2553   2.6593   3.6786   3.6786   4.5711   4.5711   5.0736   5.0736
     5.4414   5.4414   5.9055   6.7766   6.9027   6.9027   6.9210   6.9210
     7.3533   7.7835   7.7835   9.0247   9.0761   9.3542   9.4764  10.0445
    10.5092  10.7650  10.7650  10.9440

          k = 0.5556-0.1925 0.0000 (  9066 PWs)   bands (ev):

   -19.7590 -19.7590 -17.8482 -16.0433 -13.0279 -11.4400 -11.4031  -9.9017
    -9.1671  -9.1670  -7.5702  -7.5701  -7.0295  -7.0295  -5.4015  -3.4975
     0.0733   2.2647   3.6203   3.6203   4.5126   4.5126   5.0141   5.0141
     5.5109   5.5109   6.2901   6.6770   6.6770   6.8687   6.8687   7.1438
     7.7215   7.7215   7.7493   8.8867   9.0106   9.3595   9.7469  10.4205
    10.4597  10.6311  10.7179  10.7179

          k = 0.5370-0.2245 0.0000 (  9054 PWs)   bands (ev):

   -19.7890 -19.7890 -17.5666 -16.3592 -12.7786 -11.6955 -11.2084 -10.1782
    -9.1623  -9.1623  -7.6052  -7.6051  -6.9086  -6.9085  -5.0939  -3.8186
     0.4124   1.8748   3.5786   3.5786   4.4708   4.4708   4.9715   4.9715
     5.5607   5.5607   6.5098   6.5098   6.6897   6.8320   6.8320   7.5167
     7.6779   7.6779   8.1616   8.4251   8.8434   9.6819   9.9709  10.0180
    10.5618  10.6844  10.6844  10.7498

          k = 0.5185-0.2566 0.0000 (  9060 PWs)   bands (ev):

   -19.8070 -19.8070 -17.2760 -16.6716 -12.5212 -11.9801 -10.9646 -10.4500
    -9.1602  -9.1602  -7.6260  -7.6260  -6.8338  -6.8338  -4.7801  -4.1417
     0.7647   1.4931   3.5535   3.5535   4.4458   4.4458   4.9459   4.9459
     5.5895   5.5895   6.4064   6.4064   6.8104   6.8104   7.1038   7.6520
     7.6520   7.8891   7.9726   8.5786   8.5903   9.4954   9.9744  10.2885
    10.3972  10.6644  10.6644  10.8214

          k = 0.5000-0.2887 0.0000 (  9070 PWs)   bands (ev):

   -19.8130 -19.8130 -16.9772 -16.9772 -12.2544 -12.2544 -10.7113 -10.7113
    -9.1603  -9.1602  -7.6348  -7.6347  -6.8088  -6.8087  -4.4629  -4.4628
     1.1233   1.1233   3.5451   3.5451   4.4372   4.4372   4.9373   4.9373
     5.5988   5.5989   6.3710   6.3710   6.8030   6.8030   7.5318   7.5318
     7.6433   7.6433   8.2498   8.2498   9.0351   9.0351  10.2147  10.2147
    10.5580  10.5580  10.6573  10.6573

          k = 0.4815-0.3208 0.0000 (  9060 PWs)   bands (ev):

   -19.8070 -19.8070 -17.2760 -16.6716 -12.5212 -11.9801 -10.9646 -10.4500
    -9.1602  -9.1602  -7.6260  -7.6260  -6.8338  -6.8338  -4.7801  -4.1417
     0.7647   1.4931   3.5535   3.5535   4.4458   4.4458   4.9459   4.9459
     5.5895   5.5895   6.4064   6.4064   6.8104   6.8104   7.1038   7.6520
     7.6520   7.8891   7.9726   8.5786   8.5903   9.4954   9.9744  10.2885
    10.3972  10.6644  10.6644  10.8214

          k = 0.4630-0.3528 0.0000 (  9054 PWs)   bands (ev):

   -19.7890 -19.7890 -17.5666 -16.3592 -12.7786 -11.6955 -11.2084 -10.1782
    -9.1623  -9.1623  -7.6052  -7.6051  -6.9086  -6.9085  -5.0939  -3.8186
     0.4124   1.8748   3.5786   3.5786   4.4708   4.4708   4.9715   4.9715
     5.5607   5.5607   6.5098   6.5098   6.6897   6.8320   6.8320   7.5167
     7.6779   7.6779   8.1616   8.4251   8.8434   9.6819   9.9709  10.0180
    10.5618  10.6844  10.6844  10.7498

          k = 0.4444-0.3849 0.0000 (  9066 PWs)   bands (ev):

   -19.7590 -19.7590 -17.8482 -16.0433 -13.0279 -11.4400 -11.4031  -9.9017
    -9.1671  -9.1670  -7.5702  -7.5701  -7.0295  -7.0295  -5.4015  -3.4975
     0.0733   2.2647   3.6203   3.6203   4.5126   4.5126   5.0141   5.0141
     5.5109   5.5109   6.2901   6.6770   6.6770   6.8687   6.8687   7.1438
     7.7215   7.7215   7.7493   8.8867   9.0106   9.3595   9.7469  10.4205
    10.4597  10.6311  10.7179  10.7179

          k = 0.4259-0.4170 0.0000 (  9058 PWs)   bands (ev):

   -19.7171 -19.7170 -18.1207 -15.7250 -13.2675 -11.6563 -11.1022  -9.6198
    -9.1749  -9.1748  -7.5207  -7.5207  -7.1854  -7.1854  -5.7052  -3.1784
    -0.2553   2.6593   3.6786   3.6786   4.5711   4.5711   5.0736   5.0736
     5.4414   5.4414   5.9055   6.7766   6.9027   6.9027   6.9210   6.9210
     7.3533   7.7835   7.7835   9.0247   9.0761   9.3542   9.4764  10.0445
    10.5092  10.7650  10.7650  10.9440

          k = 0.4074-0.4491 0.0000 (  9042 PWs)   bands (ev):

   -19.6631 -19.6631 -18.3831 -15.4076 -13.4966 -11.8552 -10.7948  -9.3338
    -9.1904  -9.1903  -7.4574  -7.4574  -7.3756  -7.3755  -5.9977  -2.8641
    -0.5704   3.0618   3.7535   3.7535   4.6463   4.6463   5.1500   5.1500
     5.3501   5.3501   5.5363   6.4192   6.9740   6.9895   6.9895   7.1739
     7.1739   7.8656   7.8657   8.6893   9.0707   9.2101   9.6875   9.8217
    10.3863  10.6488  10.6488  10.8256

          k = 0.3889-0.4811 0.0000 (  9050 PWs)   bands (ev):

   -19.5973 -19.5972 -18.6352 -15.0976 -13.7174 -12.0327 -10.4789  -9.2186
    -9.2186  -9.0442  -7.5853  -7.5852  -7.3815  -7.3815  -6.2818  -2.5577
    -0.8753   3.4668   3.8449   3.8449   4.7377   4.7377   5.1827   5.2317
     5.2317   5.2432   5.2432   6.0736   6.6113   7.0745   7.0745   7.4747
     7.4747   7.9731   7.9731   8.3592   8.9464   9.0323   9.3514  10.2622
    10.2773  10.3608  10.3608  10.8995

          k = 0.3704-0.5132 0.0000 (  9068 PWs)   bands (ev):

   -19.5196 -19.5195 -18.8772 -14.8029 -13.9274 -12.1777 -10.1582  -9.2708
    -9.2708  -8.7541  -7.8030  -7.8030  -7.2913  -7.2913  -6.5558  -2.2610
    -1.1657   3.8783   3.9527   3.9527   4.8438   4.8438   4.8450   5.0887
     5.0887   5.3532   5.3532   5.7413   6.2653   7.1766   7.1766   7.7674
     7.7674   8.0382   8.1195   8.1196   8.6839   8.9879   9.0385  10.0995
    10.0995  10.1340  10.6994  10.9872

          k = 0.3519-0.5453 0.0000 (  9056 PWs)   bands (ev):

   -19.4298 -19.4298 -19.1080 -14.5369 -14.1287 -12.2804  -9.8266  -9.3573
    -9.3573  -8.4618  -8.0026  -8.0026  -7.1878  -7.1878  -6.8188  -1.9778
    -1.4449   4.0769   4.0769   4.2938   4.5232   4.8958   4.8958   4.9901
     4.9901   5.4231   5.4800   5.4800   5.9361   7.2958   7.2958   7.7287
     8.0008   8.0008   8.3168   8.3168   8.4223   8.7511   8.9541   9.9098
     9.9098  10.0039  11.0428  11.0887

          k = 0.3333 0.5774 0.0000 (  9078 PWs)   bands (ev):

   -19.3284 -19.3283 -19.3283 -14.3204 -14.3202 -12.3228  -9.4952  -9.4952
    -9.4951  -8.1705  -8.1705  -8.1704  -7.0711  -7.0711  -7.0711  -1.7108
    -1.7107   4.2175   4.2175   4.2175   4.7104   4.7104   4.7104   5.1198
     5.1198   5.1198   5.6237   5.6237   5.6237   7.4321   7.4321   7.4321
     8.1617   8.1617   8.1617   8.4909   8.4909   8.4909   8.9413   9.8697
     9.8697   9.8697  11.2040  11.2040

          k = 0.3148 0.5453 0.0000 (  9049 PWs)   bands (ev):

   -19.5375 -19.2151 -19.2151 -14.4999 -14.1718 -12.2733  -9.6924  -9.6924
    -9.1583  -8.2909  -8.2909  -7.8806  -7.3122  -6.9410  -6.9410  -1.9621
    -1.4606   3.9281   4.3745   4.3745   4.4875   4.4876   4.8317   5.1274
     5.2773   5.2773   5.3281   5.7841   5.7841   7.1494   7.5856   7.5856
     7.9038   8.2418   8.2418   8.2556   8.5729   8.5729   8.9556   9.7309
    10.0550  10.0550  10.9601  11.1269

          k = 0.2963 0.5132 0.0000 (  9053 PWs)   bands (ev):

   -19.7353 -19.0902 -19.0901 -14.6709 -14.1034 -12.1354  -9.9468  -9.9467
    -8.8183  -8.3661  -8.3661  -7.5973  -7.5415  -6.7986  -6.7986  -2.2007
    -1.2307   3.6549   4.2386   4.2386   4.5478   4.5478   4.5592   5.0493
     5.4523   5.4523   5.5446   5.9612   5.9612   6.8813   7.6525   7.7560
     7.7560   8.0416   8.1654   8.1655   8.6772   8.6772   9.0003   9.5826
    10.4182  10.4183  10.7208  10.9980

          k = 0.2778 0.4811 0.0000 (  9057 PWs)   bands (ev):

   -19.9216 -18.9538 -18.9537 -14.8316 -14.1044 -11.9184 -10.2449 -10.2449
    -8.4770  -8.4026  -8.4026  -7.7582  -7.3153  -6.6439  -6.6439  -2.4265
    -1.0237   3.3981   3.9670   3.9670   4.3026   4.7373   4.7373   4.7874
     5.6441   5.6442   5.9570   6.1550   6.1550   6.6283   7.4114   7.8480
     7.9433   7.9433   7.9777   7.9777   8.8426   8.8426   9.0761   9.4285
    10.4899  10.8556  10.8755  10.8756

          k = 0.2593 0.4491 0.0000 (  9039 PWs)   bands (ev):

   -20.0963 -18.8057 -18.8057 -14.9822 -14.1521 -11.6440 -10.5720 -10.5720
    -8.4173  -8.4173  -8.1314  -7.9612  -7.0368  -6.4766  -6.4766  -2.6379
    -0.8397   3.1577   3.6764   3.6765   4.0621   4.5424   4.9430   4.9430
     5.8529   5.8529   6.3653   6.3653   6.3662   6.3909   7.1829   7.6736
     7.7511   7.7512   8.1475   8.1475   9.0396   9.0396   9.1818   9.2661
    10.2699  10.6453  10.7062  11.0829

          k = 0.2407 0.4170 0.0000 (  9047 PWs)   bands (ev):

   -20.2595 -18.6465 -18.6464 -15.1224 -14.2264 -11.3324 -10.9180 -10.9179
    -8.4135  -8.4134  -8.1533  -7.7891  -6.7689  -6.3005  -6.3004  -2.8349
    -0.6788   2.9338   3.3679   3.3680   3.8377   4.3142   5.1647   5.1647
     6.0779   6.0779   6.1690   6.5914   6.5915   6.7614   6.9677   7.5136
     7.5159   7.5159   8.3680   8.3680   9.0881   9.2579   9.2579   9.3138
    10.0617  10.2392  10.5549  10.8521

          k = 0.2222 0.3849 0.0000 (  9053 PWs)   bands (ev):

   -20.4108 -18.4758 -18.4757 -15.2520 -14.3137 -11.2753 -11.2753 -11.0012
    -8.4007  -8.4007  -8.3311  -7.4503  -6.5107  -6.1130  -6.1130  -3.0181
    -0.5397   2.7264   3.0439   3.0440   3.6296   4.1030   5.4022   5.4022
     5.9631   6.3196   6.3196   6.7672   6.8306   6.8306   7.1474   7.2883
     7.2883   7.3692   8.6051   8.6051   8.8947   9.4661   9.4945   9.4945
     9.7641   9.8670  10.4062  10.6610

          k = 0.2037 0.3528 0.0000 (  9069 PWs)   bands (ev):

   -20.5503 -18.2942 -18.2941 -15.3718 -14.4062 -11.6380 -11.6379 -10.6598
    -8.4954  -8.3817  -8.3816  -7.1141  -6.2636  -5.9176  -5.9175  -3.1875
    -0.4231   2.5356   2.7099   2.7099   3.4380   3.9086   5.6549   5.6549
     5.7733   6.5774   6.5774   6.5821   7.0039   7.0039   7.1525   7.1525
     7.2397   7.5199   8.6844   8.8582   8.8582   9.2655   9.6298   9.6864
     9.7483   9.7483  10.2623  10.4911

          k = 0.1852 0.3208 0.0000 (  9069 PWs)   bands (ev):

   -20.6780 -18.1014 -18.1014 -15.4810 -14.4972 -12.0014 -12.0014 -10.3200
    -8.6466  -8.3587  -8.3587  -6.7847  -6.0298  -5.7138  -5.7137  -3.3421
    -0.3271   2.3613   2.3722   2.3722   3.2628   3.7312   5.5997   5.9213
     5.9213   6.4125   6.8361   6.8361   6.8516   6.8516   7.1240   7.3906
     7.3906   7.8769   8.4575   8.7617   9.1273   9.1273   9.5202   9.7937
    10.0187  10.0187  10.1265  10.3367

          k = 0.1667 0.2887 0.0000 (  9069 PWs)   bands (ev):

   -20.7936 -17.8984 -17.8983 -15.5798 -14.5841 -12.3653 -12.3653  -9.9843
    -8.7836  -8.3333  -8.3333  -6.4673  -5.8114  -5.5038  -5.5038  -3.4833
    -0.2502   2.0348   2.0348   2.2036   3.1041   3.5706   5.4424   6.1934
     6.1934   6.2588   6.6567   6.6568   7.0219   7.1420   7.1420   7.6816
     7.6816   8.2105   8.2164   8.2707   9.3692   9.4122   9.4122   9.9458
    10.0003  10.1963  10.3055  10.3055

          k = 0.1481 0.2566 0.0000 (  9071 PWs)   bands (ev):

   -20.8972 -17.6852 -17.6851 -15.6682 -14.6641 -12.7259 -12.7259  -9.6598
    -8.9054  -8.3077  -8.3077  -6.1632  -5.6087  -5.2916  -5.2915  -3.6072
    -0.1871   1.6994   1.6994   2.0625   2.9622   3.4270   5.3017   6.1211
     6.3666   6.3666   6.6060   6.6060   6.9322   7.4482   7.4482   7.8018
     7.9645   7.9921   7.9921   8.5226   9.2338   9.7121   9.7121   9.8850
    10.0699  10.0758  10.3592  10.6083

          k = 0.1296 0.2245 0.0000 (  9085 PWs)   bands (ev):

   -20.9887 -17.4625 -17.4624 -15.7467 -14.7381 -13.0823 -13.0822  -9.3557
    -9.0132  -8.2812  -8.2812  -5.8774  -5.4254  -5.0780  -5.0780  -3.7193
    -0.1390   1.3731   1.3731   1.9380   2.8369   3.3003   5.1773   5.9997
     6.2619   6.2620   6.8578   6.8670   6.8670   7.3599   7.7124   7.7703
     7.7703   8.3201   8.3201   8.8083   9.1139   9.7814   9.9573  10.0267
    10.0267  10.1756  10.2346  10.9268

          k = 0.1111 0.1925 0.0000 (  9075 PWs)   bands (ev):

   -21.0681 -17.2306 -17.2305 -15.8146 -14.8029 -13.4302 -13.4302  -9.1072
    -9.0716  -8.2566  -8.2566  -5.6150  -5.2620  -4.8679  -4.8679  -3.8160
    -0.1015   1.0629   1.0629   1.8301   2.7282   3.1905   5.0695   5.8943
     6.1284   6.1284   6.7955   6.9581   7.1921   7.1921   7.4667   8.1080
     8.1080   8.6651   8.6651   9.0096   9.0649   9.6905   9.8592  10.1263
    10.2447  10.3552  10.3552  10.8528

          k = 0.0926 0.1604 0.0000 (  9083 PWs)   bands (ev):

   -21.1353 -16.9919 -16.9919 -15.8722 -14.8589 -13.7689 -13.7688  -9.1872
    -8.8185  -8.2362  -8.2362  -5.3768  -5.1202  -4.6671  -4.6670  -3.8983
    -0.0726   0.7727   0.7727   1.7388   2.6362   3.0976   4.9781   5.8052
     6.0084   6.0084   6.6017   6.7440   7.2367   7.5386   7.5386   8.4607
     8.4607   8.9211   9.0270   9.0270   9.2876   9.6127   9.7757  10.0345
    10.2874  10.6952  10.6952  10.7603

          k = 0.0741 0.1283 0.0000 (  9093 PWs)   bands (ev):

   -21.1904 -16.7485 -16.7484 -15.9196 -14.9049 -14.0940 -14.0940  -9.2526
    -8.6031  -8.2183  -8.2183  -5.1727  -5.0029  -4.4816  -4.4815  -3.9651
    -0.0536   0.5128   0.5128   1.6642   2.5608   3.0216   4.9033   5.7322
     5.9084   5.9084   6.2972   6.7018   7.0323   7.9021   7.9021   8.8281
     8.8281   8.8486   9.4054   9.4054   9.4772   9.5484   9.7071   9.9592
    10.3098  10.6847  11.0031  11.0412

          k = 0.0556 0.0962 0.0000 (  9083 PWs)   bands (ev):

   -21.2332 -16.5050 -16.5050 -15.9560 -14.9417 -14.4012 -14.4011  -9.3026
    -8.4234  -8.2046  -8.2045  -5.0103  -4.9109  -4.3195  -4.3194  -4.0167
    -0.0390   0.2927   0.2927   1.6061   2.5023   2.9625   4.8453   5.6755
     5.8299   5.8300   6.0529   6.6690   6.8615   8.2812   8.2812   8.7924
     9.2095   9.2095   9.4984   9.6285   9.6535   9.8003   9.8003   9.9005
    10.3199  10.6259  10.8478  10.8478

          k = 0.0370 0.0641 0.0000 (  9053 PWs)   bands (ev):

   -21.2638 -16.2738 -16.2738 -15.9819 -14.9665 -14.6791 -14.6791  -9.3386
    -8.2887  -8.1914  -8.1913  -4.8904  -4.8443  -4.1918  -4.1918  -4.0520
    -0.0287   0.1247   0.1247   1.5646   2.4605   2.9203   4.8037   5.6350
     5.7730   5.7730   5.8741   6.6462   6.7352   8.6747   8.6747   8.7521
     9.4626   9.6032   9.6032   9.6154   9.7358   9.8586  10.2078  10.2078
    10.3235  10.3990  10.3990  10.5841

          k = 0.0185 0.0321 0.0000 (  9065 PWs)   bands (ev):

   -21.2822 -16.0841 -16.0840 -15.9979 -14.9821 -14.8967 -14.8967  -9.3610
    -8.2113  -8.1857  -8.1857  -4.8156  -4.8038  -4.1098  -4.1097  -4.0739
    -0.0230   0.0158   0.0158   1.5397   2.4353   2.8950   4.7787   5.6107
     5.7388   5.7389   5.7642   6.6331   6.6556   8.7278   9.0803   9.0803
     9.4408   9.5924   9.8007   9.8333   9.9500   9.9500  10.0041  10.0041
    10.3241  10.5589  10.6424  10.6424

          k = 0.0000 0.0000 0.0000 (  9069 PWs)   bands (ev):

   -21.2883 -16.0029 -16.0029 -16.0028 -14.9874 -14.9873 -14.9873  -9.3685
    -8.1828  -8.1828  -8.1828  -4.7937  -4.7937  -4.0814  -4.0814  -4.0813
    -0.0212  -0.0212  -0.0212   1.5314   2.4269   2.8865   4.7704   5.6026
     5.7273   5.7273   5.7274   6.6278   6.6278   8.7196   9.4337   9.4337
     9.4337   9.5847   9.5847   9.5847   9.8196   9.8249  10.3240  10.3240
    10.3240  10.5505  10.5505  10.5505

          k = 0.0312 0.0180 0.0000 (  9061 PWs)   bands (ev):

   -21.2825 -16.1053 -16.0268 -16.0267 -14.9538 -14.9538 -14.8761  -9.3614
    -8.2014  -8.2014  -8.1783  -4.8143  -4.8029  -4.1181  -4.0858  -4.0857
    -0.0105  -0.0105   0.0267   1.5393   2.4349   2.8945   4.7783   5.6103
     5.7303   5.7543   5.7543   6.6328   6.6540   8.7273   9.0268   9.2633
     9.2633   9.7684   9.7684   9.8019   9.8329   9.9527  10.0019  10.1772
    10.1772  10.5856  10.7041  10.7041

          k = 0.0625 0.0361 0.0000 (  9059 PWs)   bands (ev):

   -21.2651 -16.3360 -16.0902 -16.0902 -14.8617 -14.8617 -14.6190  -9.3407
    -8.2538  -8.2537  -8.1598  -4.8842  -4.8412  -4.2293  -4.0992  -4.0992
     0.0208   0.0208   0.1633   1.5629   2.4587   2.9186   4.8020   5.6334
     5.7386   5.8347   5.8347   6.6438   6.7297   8.5652   8.7503   9.0484
     9.0484   9.4971   9.7402   9.8568   9.9643   9.9643  10.0225  10.0225
    10.0956  10.5004  10.6092  10.6092

          k = 0.0938 0.0541 0.0000 (  9065 PWs)   bands (ev):

   -21.2360 -16.6112 -16.1774 -16.1774 -14.7270 -14.7270 -14.3029  -9.3053
    -8.3415  -8.3414  -8.1315  -5.0018  -4.9033  -4.3974  -4.1195  -4.1195
     0.0719   0.0719   0.3757   1.6023   2.4986   2.9586   4.8415   5.6718
     5.7521   5.9672   5.9672   6.6616   6.8567   8.1148   8.7888   8.8442
     8.8442   9.0481   9.6266   9.6383   9.7546   9.7546   9.8967  10.2848
    10.2848  10.4014  10.4014  10.9179

          k = 0.1250 0.0722 0.0000 (  9064 PWs)   bands (ev):

   -21.1954 -16.8984 -16.2749 -16.2749 -14.5629 -14.5629 -13.9563  -9.2570
    -8.4621  -8.4621  -8.0888  -5.1598  -4.9856  -4.6078  -4.1463  -4.1463
     0.1409   0.1409   0.6491   1.6574   2.5542   3.0147   4.8968   5.7256
     5.7713   6.1489   6.1489   6.6826   7.0311   7.6777   8.6105   8.6537
     8.6537   8.8424   9.1718   9.4961   9.5544   9.5544   9.9524  10.1899
    10.1899  10.5773  10.5773  10.8491

          k = 0.1562 0.0902 0.0000 (  9082 PWs)   bands (ev):

   -21.1431 -17.1865 -16.3746 -16.3746 -14.3791 -14.3791 -13.5940  -9.1961
    -8.6080  -8.6080  -8.0377  -5.3626  -5.0899  -4.8473  -4.1789  -4.1789
     0.2251   0.2251   0.9687   1.7283   2.6256   3.0869   4.9676   5.7944
     5.7947   6.3769   6.3769   6.7022   7.2495   7.2553   8.1857   8.4779
     8.4779   8.7325   8.9108   9.3153   9.3656   9.3656  10.0076  10.0076
    10.0238  10.4429  10.8640  10.8640

          k = 0.1875 0.1083 0.0000 (  9074 PWs)   bands (ev):

   -21.0793 -17.4696 -16.4715 -16.4714 -14.1794 -14.1794 -13.2180  -9.1205
    -8.7808  -8.7808  -7.9739  -5.5995  -5.2131  -5.1040  -4.2146  -4.2145
     0.3226   0.3227   1.3234   1.8149   2.7129   3.1751   5.0543   5.8218
     5.8789   6.6472   6.6472   6.7169   6.8490   7.5106   7.7746   8.3090
     8.3173   8.3173   8.9927   9.1020   9.1890   9.1890   9.8402   9.8402
    10.0443  10.1108  10.9180  11.1553

          k = 0.2188 0.1263 0.0000 (  9070 PWs)   bands (ev):

   -21.0039 -17.7463 -16.5628 -16.5627 -13.9683 -13.9682 -12.8336  -9.0310
    -8.9757  -8.9757  -7.9015  -5.8658  -5.3719  -5.3458  -4.2512  -4.2511
     0.4265   0.4265   1.7025   1.9173   2.8161   3.2793   5.1567   5.8482
     5.9778   6.4631   6.7283   6.9551   6.9551   7.3776   7.8122   7.9015
     8.1726   8.1726   8.8516   9.0252   9.0252   9.0968   9.6565   9.6885
     9.6885  10.2133  10.5223  11.0842

          k = 0.2500 0.1443 0.0000 (  9066 PWs)   bands (ev):

   -20.9170 -18.0150 -16.6470 -16.6469 -13.7487 -13.7487 -12.4394  -9.1853
    -9.1852  -8.9284  -7.8176  -6.1661  -5.6431  -5.4942  -4.2884  -4.2883
     0.5371   0.5372   2.0354   2.1026   2.9351   3.3995   5.2747   5.8451
     6.0907   6.1259   6.7303   6.9954   7.2955   7.2956   7.5100   8.0459
     8.0459   8.1461   8.5759   8.8747   8.8747   9.2104   9.2816   9.5528
     9.5528  10.1411  10.3312  10.9295

          k = 0.2812 0.1624 0.0000 (  9066 PWs)   bands (ev):

   -20.8186 -18.2746 -16.7228 -16.7228 -13.5220 -13.5219 -12.0401  -9.4106
    -9.4106  -8.8121  -7.7232  -6.4853  -5.9146  -5.6502  -4.3259  -4.3258
     0.6484   0.6484   2.1693   2.5182   3.0698   3.5358   5.4082   5.6439
     6.0056   6.2156   6.6282   6.7261   7.1349   7.6469   7.6469   7.9517
     7.9517   8.2763   8.5135   8.7378   8.7378   8.9201   9.3398   9.4332
     9.4332   9.7748  10.4644  10.7808

          k = 0.3125 0.1804 0.0000 (  9062 PWs)   bands (ev):

   -20.7088 -18.5250 -16.7894 -16.7894 -13.2916 -13.2916 -11.6348  -9.6430
    -9.6429  -8.6820  -7.6188  -6.8302  -6.1833  -5.8157  -4.3588  -4.3588
     0.7572   0.7573   2.3189   2.9431   3.2203   3.6881   5.3174   5.5572
     6.0280   6.2765   6.3469   6.7229   6.7772   7.7843   7.7843   7.9489
     8.1133   8.1133   8.5725   8.6155   8.6155   8.9102   9.3299   9.3299
     9.4235   9.4844  10.6129  10.6433

          k = 0.3438 0.1985 0.0000 (  9058 PWs)   bands (ev):

   -20.5876 -18.7656 -16.8463 -16.8463 -13.0603 -13.0603 -11.2256  -9.8807
    -9.8807  -8.5387  -7.5034  -7.1917  -6.4463  -5.9826  -4.3894  -4.3894
     0.8589   0.8590   2.4842   3.3754   3.3865   3.8564   4.9885   5.7212
     5.9410   6.0663   6.4411   6.4644   6.7403   7.5993   7.7183   7.7183
     8.2394   8.5086   8.5086   8.5127   8.5127   9.0875   9.2438   9.2438
     9.3345   9.6438  10.5202  10.5202

          k = 0.3750 0.2165 0.0000 (  9050 PWs)   bands (ev):

   -20.4551 -18.9962 -16.8931 -16.8930 -12.8346 -12.8346 -10.8140 -10.1121
   -10.1120  -8.3827  -7.5668  -7.3798  -6.7026  -6.1511  -4.4150  -4.4150
     0.9493   0.9494   2.6652   3.5681   3.8084   4.0407   4.6708   5.6230
     5.8993   6.0365   6.1948   6.5200   6.8264   7.2331   7.6529   7.6529
     7.9209   8.4183   8.4183   8.7670   8.9351   8.9352   9.1827   9.1827
     9.7818   9.8180  10.4146  10.4146

          k = 0.4062 0.2345 0.0000 (  9050 PWs)   bands (ev):

   -20.3113 -19.2163 -16.9299 -16.9298 -12.6225 -12.6225 -10.4007 -10.3315
   -10.3314  -8.2136  -7.9511  -7.2480  -6.9502  -6.3181  -4.4365  -4.4365
     1.0229   1.0229   2.8618   3.7650   4.2350   4.2410   4.3670   5.3275
     5.7695   6.0879   6.2058   6.5111   6.8572   6.9860   7.6003   7.6003
     7.6175   8.3459   8.3459   8.4621   9.0977   9.0977   9.4083   9.4083
    10.0067  10.2506  10.3291  10.3291

          k = 0.4375 0.2526 0.0000 (  9048 PWs)   bands (ev):

   -20.1563 -19.4259 -16.9562 -16.9561 -12.4370 -12.4370 -10.5214 -10.5213
    -9.9879  -8.3488  -8.0323  -7.1882  -7.1082  -6.4849  -4.4510  -4.4510
     1.0786   1.0787   3.0740   3.9767   4.0779   4.4573   4.6201   5.0889
     5.4792   6.2448   6.2580   6.4741   6.5126   7.1834   7.3296   7.5624
     7.5624   8.1730   8.2930   8.2930   9.0652   9.0652   9.8487   9.8487
    10.2098  10.2663  10.2663  10.7378

          k = 0.4688 0.2706 0.0000 (  9068 PWs)   bands (ev):

   -19.9903 -19.6248 -16.9720 -16.9719 -12.3049 -12.3049 -10.6595 -10.6595
    -9.5745  -8.7525  -7.8390  -7.4167  -6.9625  -6.6487  -4.4600  -4.4599
     1.1128   1.1128   3.3018   3.8039   4.2021   4.6597   4.6894   5.2008
     5.2074   5.9997   6.3144   6.4251   6.5740   7.0576   7.4040   7.5395
     7.5395   7.8999   8.2607   8.2607   9.0427   9.0427  10.2278  10.2278
    10.2775  10.2775  10.4268  10.9016

          k = 0.5000 0.2887 0.0000 (  9070 PWs)   bands (ev):

   -19.8130 -19.8130 -16.9772 -16.9772 -12.2544 -12.2544 -10.7113 -10.7113
    -9.1603  -9.1602  -7.6348  -7.6347  -6.8088  -6.8087  -4.4629  -4.4628
     1.1233   1.1233   3.5451   3.5451   4.4372   4.4372   4.9373   4.9373
     5.5988   5.5989   6.3710   6.3710   6.8030   6.8030   7.5318   7.5318
     7.6433   7.6433   8.2498   8.2498   9.0351   9.0351  10.2147  10.2147
    10.5580  10.5580  10.6573  10.6573

          k =-0.4688-0.2706 0.0000 (  9068 PWs)   bands (ev):

   -19.9903 -19.6248 -16.9720 -16.9719 -12.3049 -12.3049 -10.6595 -10.6595
    -9.5745  -8.7525  -7.8390  -7.4167  -6.9625  -6.6487  -4.4600  -4.4599
     1.1128   1.1128   3.3018   3.8039   4.2021   4.6597   4.6894   5.2008
     5.2074   5.9997   6.3144   6.4251   6.5740   7.0576   7.4040   7.5395
     7.5395   7.8999   8.2607   8.2607   9.0427   9.0427  10.2278  10.2278
    10.2775  10.2775  10.4268  10.9016

          k =-0.4375-0.2526 0.0000 (  9048 PWs)   bands (ev):

   -20.1563 -19.4259 -16.9562 -16.9561 -12.4370 -12.4370 -10.5214 -10.5213
    -9.9879  -8.3488  -8.0323  -7.1882  -7.1082  -6.4849  -4.4510  -4.4510
     1.0786   1.0787   3.0740   3.9767   4.0779   4.4573   4.6201   5.0889
     5.4792   6.2448   6.2580   6.4741   6.5126   7.1834   7.3296   7.5624
     7.5624   8.1730   8.2930   8.2930   9.0652   9.0652   9.8487   9.8487
    10.2098  10.2663  10.2663  10.7378

          k =-0.4062-0.2345 0.0000 (  9050 PWs)   bands (ev):

   -20.3113 -19.2163 -16.9299 -16.9298 -12.6225 -12.6225 -10.4007 -10.3315
   -10.3314  -8.2136  -7.9511  -7.2480  -6.9502  -6.3181  -4.4365  -4.4365
     1.0229   1.0229   2.8618   3.7650   4.2350   4.2410   4.3670   5.3275
     5.7695   6.0879   6.2058   6.5111   6.8572   6.9860   7.6003   7.6003
     7.6175   8.3459   8.3459   8.4621   9.0977   9.0977   9.4083   9.4083
    10.0067  10.2506  10.3291  10.3291

          k =-0.3750-0.2165 0.0000 (  9050 PWs)   bands (ev):

   -20.4551 -18.9962 -16.8931 -16.8930 -12.8346 -12.8346 -10.8140 -10.1121
   -10.1120  -8.3827  -7.5668  -7.3798  -6.7026  -6.1511  -4.4150  -4.4150
     0.9493   0.9494   2.6652   3.5681   3.8084   4.0407   4.6708   5.6230
     5.8993   6.0365   6.1948   6.5200   6.8264   7.2331   7.6529   7.6529
     7.9209   8.4183   8.4183   8.7670   8.9351   8.9352   9.1827   9.1827
     9.7818   9.8180  10.4146  10.4146

          k =-0.3438-0.1985 0.0000 (  9058 PWs)   bands (ev):

   -20.5876 -18.7656 -16.8463 -16.8463 -13.0603 -13.0603 -11.2256  -9.8807
    -9.8807  -8.5387  -7.5034  -7.1917  -6.4463  -5.9826  -4.3894  -4.3894
     0.8589   0.8590   2.4842   3.3754   3.3865   3.8564   4.9885   5.7212
     5.9410   6.0663   6.4411   6.4644   6.7403   7.5993   7.7183   7.7183
     8.2394   8.5086   8.5086   8.5127   8.5127   9.0875   9.2438   9.2438
     9.3345   9.6438  10.5202  10.5202

          k =-0.3125-0.1804 0.0000 (  9062 PWs)   bands (ev):

   -20.7088 -18.5250 -16.7894 -16.7894 -13.2916 -13.2916 -11.6348  -9.6430
    -9.6429  -8.6820  -7.6188  -6.8302  -6.1833  -5.8157  -4.3588  -4.3588
     0.7572   0.7573   2.3189   2.9431   3.2203   3.6881   5.3174   5.5572
     6.0280   6.2765   6.3469   6.7229   6.7772   7.7843   7.7843   7.9489
     8.1133   8.1133   8.5725   8.6155   8.6155   8.9102   9.3299   9.3299
     9.4235   9.4844  10.6129  10.6433

          k =-0.2812-0.1624 0.0000 (  9066 PWs)   bands (ev):

   -20.8186 -18.2746 -16.7228 -16.7228 -13.5220 -13.5219 -12.0401  -9.4106
    -9.4106  -8.8121  -7.7232  -6.4853  -5.9146  -5.6502  -4.3259  -4.3258
     0.6484   0.6484   2.1693   2.5182   3.0698   3.5358   5.4082   5.6439
     6.0056   6.2156   6.6282   6.7261   7.1349   7.6469   7.6469   7.9517
     7.9517   8.2763   8.5135   8.7378   8.7378   8.9201   9.3398   9.4332
     9.4332   9.7748  10.4644  10.7808

          k =-0.2500-0.1443 0.0000 (  9066 PWs)   bands (ev):

   -20.9170 -18.0150 -16.6470 -16.6469 -13.7487 -13.7487 -12.4394  -9.1853
    -9.1852  -8.9284  -7.8176  -6.1661  -5.6431  -5.4942  -4.2884  -4.2883
     0.5371   0.5372   2.0354   2.1026   2.9351   3.3995   5.2747   5.8451
     6.0907   6.1259   6.7303   6.9954   7.2955   7.2956   7.5100   8.0459
     8.0459   8.1461   8.5759   8.8747   8.8747   9.2104   9.2816   9.5528
     9.5528  10.1411  10.3312  10.9295

          k =-0.2188-0.1263 0.0000 (  9070 PWs)   bands (ev):

   -21.0039 -17.7463 -16.5628 -16.5627 -13.9683 -13.9682 -12.8336  -9.0310
    -8.9757  -8.9757  -7.9015  -5.8658  -5.3719  -5.3458  -4.2512  -4.2511
     0.4265   0.4265   1.7025   1.9173   2.8161   3.2793   5.1567   5.8482
     5.9778   6.4631   6.7283   6.9551   6.9551   7.3776   7.8122   7.9015
     8.1726   8.1726   8.8516   9.0252   9.0252   9.0968   9.6565   9.6885
     9.6885  10.2133  10.5223  11.0842

          k =-0.1875-0.1083 0.0000 (  9074 PWs)   bands (ev):

   -21.0793 -17.4696 -16.4715 -16.4714 -14.1794 -14.1794 -13.2180  -9.1205
    -8.7808  -8.7808  -7.9739  -5.5995  -5.2131  -5.1040  -4.2146  -4.2145
     0.3226   0.3227   1.3234   1.8149   2.7129   3.1751   5.0543   5.8218
     5.8789   6.6472   6.6472   6.7169   6.8490   7.5106   7.7746   8.3090
     8.3173   8.3173   8.9927   9.1020   9.1890   9.1890   9.8402   9.8402
    10.0443  10.1108  10.9180  11.1553

          k =-0.1562-0.0902 0.0000 (  9082 PWs)   bands (ev):

   -21.1431 -17.1865 -16.3746 -16.3746 -14.3791 -14.3791 -13.5940  -9.1961
    -8.6080  -8.6080  -8.0377  -5.3626  -5.0899  -4.8473  -4.1789  -4.1789
     0.2251   0.2251   0.9687   1.7283   2.6256   3.0869   4.9676   5.7944
     5.7947   6.3769   6.3769   6.7022   7.2495   7.2553   8.1857   8.4779
     8.4779   8.7325   8.9108   9.3153   9.3656   9.3656  10.0076  10.0076
    10.0238  10.4429  10.8640  10.8640

          k =-0.1250-0.0722 0.0000 (  9064 PWs)   bands (ev):

   -21.1954 -16.8984 -16.2749 -16.2749 -14.5629 -14.5629 -13.9563  -9.2570
    -8.4621  -8.4621  -8.0888  -5.1598  -4.9856  -4.6078  -4.1463  -4.1463
     0.1409   0.1409   0.6491   1.6574   2.5542   3.0147   4.8968   5.7256
     5.7713   6.1489   6.1489   6.6826   7.0311   7.6777   8.6105   8.6537
     8.6537   8.8424   9.1718   9.4961   9.5544   9.5544   9.9524  10.1899
    10.1899  10.5773  10.5773  10.8491

          k =-0.0938-0.0541 0.0000 (  9065 PWs)   bands (ev):

   -21.2360 -16.6112 -16.1774 -16.1774 -14.7270 -14.7270 -14.3029  -9.3053
    -8.3415  -8.3414  -8.1315  -5.0018  -4.9033  -4.3974  -4.1195  -4.1195
     0.0719   0.0719   0.3757   1.6023   2.4986   2.9586   4.8415   5.6718
     5.7521   5.9672   5.9672   6.6616   6.8567   8.1148   8.7888   8.8442
     8.8442   9.0481   9.6266   9.6383   9.7546   9.7546   9.8967  10.2848
    10.2848  10.4014  10.4014  10.9179

          k =-0.0625-0.0361 0.0000 (  9059 PWs)   bands (ev):

   -21.2651 -16.3360 -16.0902 -16.0902 -14.8617 -14.8617 -14.6190  -9.3407
    -8.2538  -8.2537  -8.1598  -4.8842  -4.8412  -4.2293  -4.0992  -4.0992
     0.0208   0.0208   0.1633   1.5629   2.4587   2.9186   4.8020   5.6334
     5.7386   5.8347   5.8347   6.6438   6.7297   8.5652   8.7503   9.0484
     9.0484   9.4971   9.7402   9.8568   9.9643   9.9643  10.0225  10.0225
    10.0956  10.5004  10.6092  10.6092

          k =-0.0312-0.0180 0.0000 (  9061 PWs)   bands (ev):

   -21.2825 -16.1053 -16.0268 -16.0267 -14.9538 -14.9538 -14.8761  -9.3614
    -8.2014  -8.2014  -8.1783  -4.8143  -4.8029  -4.1181  -4.0858  -4.0857
    -0.0105  -0.0105   0.0267   1.5393   2.4349   2.8945   4.7783   5.6103
     5.7303   5.7543   5.7543   6.6328   6.6540   8.7273   9.0268   9.2633
     9.2633   9.7684   9.7684   9.8019   9.8329   9.9527  10.0019  10.1772
    10.1772  10.5856  10.7041  10.7041

          k =-0.0152 0.0262 0.0000 (  9065 PWs)   bands (ev):

   -21.2842 -16.0587 -16.0586 -15.9996 -14.9839 -14.9252 -14.9251  -9.3634
    -8.2023  -8.1850  -8.1849  -4.8095  -4.8001  -4.0997  -4.0996  -4.0763
    -0.0224   0.0039   0.0040   1.5370   2.4326   2.8922   4.7760   5.6080
     5.7351   5.7351   5.7520   6.6305   6.6463   8.7251   9.1547   9.1547
     9.4384   9.5899   9.8078   9.8306   9.8717   9.8717  10.0763  10.0763
    10.3240  10.5561  10.7217  10.7217

          k =-0.0303 0.0525 0.0000 (  9057 PWs)   bands (ev):

   -21.2719 -16.1973 -16.1973 -15.9891 -14.9734 -14.7675 -14.7675  -9.3482
    -8.2550  -8.1883  -8.1882  -4.8576  -4.8265  -4.1559  -4.1558  -4.0631
    -0.0269   0.0774   0.0775   1.5536   2.4494   2.9091   4.7927   5.6243
     5.7581   5.7581   5.8258   6.6405   6.7006   8.7414   8.8211   8.8211
     9.4529   9.6053   9.7487   9.7487   9.7643   9.8474  10.2248  10.2248
    10.3237  10.3734  10.3734  10.5728

          k =-0.0455 0.0787 0.0000 (  9061 PWs)   bands (ev):

   -21.2514 -16.3762 -16.3761 -15.9715 -14.9571 -14.5573 -14.5573  -9.3243
    -8.3427  -8.1966  -8.1966  -4.9380  -4.8708  -4.2444  -4.2443  -4.0379
    -0.0326   0.1941   0.1942   1.5814   2.4774   2.9374   4.8205   5.6514
     5.7962   5.7962   5.9467   6.6555   6.7858   8.4941   8.4941   8.7684
     9.4228   9.4228   9.4771   9.6308   9.6923   9.8756  10.0221  10.0221
    10.3225  10.6007  10.6007  10.6010

          k =-0.0606 0.1050 0.0000 (  9075 PWs)   bands (ev):

   -21.2228 -16.5708 -16.5707 -15.9469 -14.9321 -14.3195 -14.3194  -9.2901
    -8.4674  -8.2080  -8.2080  -5.0512  -4.9337  -4.3604  -4.3604  -4.0039
    -0.0423   0.3484   0.3484   1.6203   2.5167   2.9769   4.8595   5.6894
     5.8493   5.8494   6.1135   6.6766   6.9040   8.1763   8.1763   8.8062
     9.1042   9.1042   9.5107   9.5922   9.6667   9.6910   9.6910   9.9149
    10.3181  10.6403  10.9424  10.9722

          k =-0.0758 0.1312 0.0000 (  9089 PWs)   bands (ev):

   -21.1859 -16.7707 -16.7706 -15.9155 -14.9011 -14.0650 -14.0650  -9.2472
    -8.6201  -8.2199  -8.2198  -5.1897  -5.0126  -4.4976  -4.4976  -3.9596
    -0.0551   0.5349   0.5349   1.6703   2.5670   3.0278   4.9094   5.7382
     5.9166   5.9166   6.3227   6.7052   7.0496   7.8684   7.8684   8.7941
     8.7941   8.8546   9.3703   9.3703   9.4619   9.5538   9.7128   9.9653
    10.3083  10.6909  11.0099  11.0099

          k =-0.0909 0.1575 0.0000 (  9087 PWs)   bands (ev):

   -21.1408 -16.9699 -16.9699 -15.8769 -14.8635 -13.7991 -13.7991  -9.1937
    -8.7970  -8.2346  -8.2346  -5.3569  -5.1085  -4.6497  -4.6496  -3.9050
    -0.0705   0.7477   0.7477   1.7314   2.6286   3.0900   4.9706   5.7979
     5.9984   5.9984   6.5718   6.7398   7.2169   7.5710   7.5710   8.4935
     8.4935   8.9139   9.0607   9.0607   9.3061   9.6063   9.7689  10.0270
    10.2902  10.7265  10.7265  10.7527

          k =-0.1061 0.1837 0.0000 (  9083 PWs)   bands (ev):

   -21.0876 -17.1662 -17.1661 -15.8313 -14.8193 -13.5237 -13.5237  -9.1305
    -8.9993  -8.2504  -8.2503  -5.5477  -5.2214  -4.8125  -4.8125  -3.8404
    -0.0933   0.9814   0.9814   1.8036   2.7014   3.1635   5.0429   5.8684
     6.0939   6.0939   6.7802   6.8562   7.2848   7.2848   7.4020   8.2026
     8.2026   8.7622   8.7622   8.9839   9.1289   9.6679   9.8349  10.0996
    10.2586  10.4468  10.4468  10.8259

          k =-0.1212 0.2099 0.0000 (  9067 PWs)   bands (ev):

   -21.0263 -17.3578 -17.3577 -15.7790 -14.7687 -13.2408 -13.2408  -9.2231
    -9.0575  -8.2696  -8.2696  -5.7538  -5.3478  -4.9815  -4.9814  -3.7653
    -0.1205   1.2301   1.2302   1.8869   2.7854   3.2483   5.1263   5.9498
     6.2007   6.2007   6.8291   7.0114   7.0114   7.1718   7.5999   7.9219
     7.9219   8.4749   8.4749   8.9295   9.0646   9.7384   9.9109  10.1745
    10.1745  10.1833  10.2108  10.9102

          k =-0.1364 0.2362 0.0000 (  9077 PWs)   bands (ev):

   -20.9568 -17.5445 -17.5444 -15.7195 -14.7124 -12.9538 -12.9538  -9.4647
    -8.9754  -8.2902  -8.2902  -5.9789  -5.4897  -5.1554  -5.1553  -3.6797
    -0.1549   1.4911   1.4911   1.9814   2.8806   3.3444   5.2207   6.0420
     6.3104   6.3104   6.7578   6.7578   6.8838   7.5160   7.6514   7.6514
     7.8040   8.1989   8.1989   8.7077   9.1558   9.8176   9.9107   9.9107
     9.9966  10.1430  10.2780  10.8092

          k =-0.1515 0.2624 0.0000 (  9075 PWs)   bands (ev):

   -20.8793 -17.7247 -17.7246 -15.6529 -14.6499 -12.6608 -12.6608  -9.7176
    -8.8838  -8.3132  -8.3131  -6.2193  -5.6451  -5.3304  -5.3304  -3.5855
    -0.1973   1.7598   1.7598   2.0869   2.9868   3.4519   5.3261   6.1450
     6.3609   6.3609   6.5868   6.5868   6.9475   7.3913   7.3913   7.8851
     7.9344   7.9344   8.0126   8.4674   9.2574   9.6564   9.6564   9.9051
    10.0544  10.0919  10.3836  10.5521

          k =-0.1667 0.2887 0.0000 (  9069 PWs)   bands (ev):

   -20.7936 -17.8984 -17.8983 -15.5798 -14.5841 -12.3653 -12.3653  -9.9843
    -8.7836  -8.3333  -8.3333  -6.4673  -5.8114  -5.5038  -5.5038  -3.4833
    -0.2502   2.0348   2.0348   2.2036   3.1041   3.5706   5.4424   6.1934
     6.1934   6.2588   6.6567   6.6568   7.0219   7.1420   7.1420   7.6816
     7.6816   8.2105   8.2164   8.2707   9.3692   9.4122   9.4122   9.9458
    10.0003  10.1963  10.3055  10.3055

          k =-0.1818 0.3149 0.0000 (  9069 PWs)   bands (ev):

   -20.6999 -18.0653 -18.0652 -15.4997 -14.5134 -12.0676 -12.0676 -10.2583
    -8.6725  -8.3541  -8.3540  -6.7261  -5.9888  -5.6761  -5.6761  -3.3687
    -0.3117   2.3106   2.3106   2.3314   3.2327   3.7007   5.5699   5.9709
     5.9709   6.3834   6.8016   6.8016   6.9032   6.9032   7.1046   7.4418
     7.4418   7.9395   8.4147   8.6713   9.1780   9.1780   9.4917   9.8226
    10.0697  10.0697  10.1028  10.3102

          k =-0.1970 0.3412 0.0000 (  9069 PWs)   bands (ev):

   -20.5981 -18.2254 -18.2254 -15.4127 -14.4396 -11.7698 -11.7698 -10.5353
    -8.5517  -8.3739  -8.3738  -6.9939  -6.1769  -5.8444  -5.8444  -3.2454
    -0.3858   2.4703   2.5876   2.5876   3.3724   3.8421   5.7083   5.7503
     5.7503   6.5186   6.6752   6.6752   6.9555   6.9555   7.1962   7.2223
     7.2223   7.6514   8.6039   8.9542   8.9542   9.0824   9.6243   9.6899
     9.8447   9.8447  10.2119  10.4333

          k =-0.2121 0.3674 0.0000 (  9065 PWs)   bands (ev):

   -20.4884 -18.3781 -18.3781 -15.3184 -14.3635 -11.4733 -11.4733 -10.8144
    -8.4224  -8.3916  -8.3916  -7.2666  -6.3743  -6.0075  -6.0075  -3.1120
    -0.4731   2.6203   2.8620   2.8620   3.5230   3.9949   5.5382   5.5382
     5.8576   6.4581   6.4581   6.6643   6.9572   6.9572   7.1779   7.1779
     7.2967   7.3525   8.7411   8.7411   8.7823   9.4943   9.5547   9.6308
     9.6308   9.7667  10.3270  10.5663

          k =-0.2273 0.3936 0.0000 (  9057 PWs)   bands (ev):

   -20.3707 -18.5234 -18.5234 -15.2178 -14.2892 -11.1774 -11.1773 -11.0937
    -8.4052  -8.4052  -8.2839  -7.5412  -6.5798  -6.1657  -6.1657  -2.9695
    -0.5754   2.7814   3.1330   3.1330   3.6847   4.1589   5.3359   5.3359
     6.0177   6.2520   6.2520   6.7647   6.7647   6.8204   7.0436   7.3488
     7.3488   7.4072   8.5388   8.5388   8.9491   9.4230   9.4283   9.4283
     9.8966   9.9187  10.4461  10.7104

          k =-0.2424 0.4199 0.0000 (  9043 PWs)   bands (ev):

   -20.2452 -18.6614 -18.6614 -15.1098 -14.2187 -11.3613 -10.8860 -10.8860
    -8.4143  -8.4142  -8.1364  -7.8202  -6.7929  -6.3170  -6.3169  -2.8169
    -0.6922   2.9535   3.3967   3.3967   3.8574   4.3342   5.1439   5.1439
     6.0568   6.0568   6.1885   6.5703   6.5703   6.7257   6.9866   7.5275
     7.5372   7.5372   8.3473   8.3473   9.1049   9.2373   9.2373   9.3009
    10.0800  10.2798  10.5689  10.8711

          k =-0.2576 0.4461 0.0000 (  9043 PWs)   bands (ev):

   -20.1116 -18.7918 -18.7917 -14.9954 -14.1580 -11.6169 -10.6028 -10.6028
    -8.4178  -8.4178  -8.1002  -7.9791  -7.0121  -6.4613  -6.4613  -2.6565
    -0.8242   3.1367   3.6490   3.6490   4.0411   4.5209   4.9625   4.9625
     5.8726   5.8726   6.3701   6.3852   6.3852   6.4028   7.1628   7.6584
     7.7297   7.7297   8.1668   8.1668   9.0586   9.0586   9.1928   9.2505
    10.2504  10.6127  10.6924  11.0596

          k =-0.2727 0.4724 0.0000 (  9053 PWs)   bands (ev):

   -19.9704 -18.9146 -18.9145 -14.8735 -14.1131 -11.8474 -10.3325 -10.3325
    -8.4083  -8.4083  -8.3818  -7.8150  -7.2383  -6.5997  -6.5997  -2.4856
    -0.9712   3.3309   3.8894   3.8894   4.2354   4.7189   4.7918   4.7918
     5.6994   5.6994   6.0688   6.2107   6.2107   6.5620   7.3478   7.7984
     7.9178   7.9178   7.9973   7.9973   8.8939   8.8939   9.1021   9.3849
    10.4287  10.8156  10.8710  11.0072

          k =-0.2879 0.4986 0.0000 (  9059 PWs)   bands (ev):

   -19.8214 -19.0296 -19.0296 -14.7452 -14.0967 -12.0461 -10.0786 -10.0785
    -8.6620  -8.3866  -8.3865  -7.6412  -7.4682  -6.7299  -6.7299  -2.3057
    -1.1340   3.5361   4.1178   4.1179   4.4406   4.6319   4.6319   4.9281
     5.5374   5.5374   5.7348   6.0472   6.0472   6.7644   7.5416   7.8390
     7.8390   7.9515   8.0881   8.0881   8.7472   8.7472   9.0309   9.5138
    10.6147  10.6181  10.6182  10.9345

          k =-0.3030 0.5249 0.0000 (  9049 PWs)   bands (ev):

   -19.6647 -19.1370 -19.1369 -14.6100 -14.1191 -12.1959  -9.8491  -9.8490
    -8.9421  -8.3442  -8.3442  -7.6977  -7.4593  -6.8518  -6.8517  -2.1154
    -1.3115   3.7523   4.3317   4.3317   4.4829   4.4829   4.6565   5.1487
     5.3867   5.3867   5.3953   5.8949   5.8949   6.9771   7.6921   7.6921
     7.7430   8.1177   8.2114   8.2114   8.6303   8.6303   8.9804   9.6377
    10.2714  10.2714  10.8071  11.0467

          k =-0.3182 0.5511 0.0000 (  9043 PWs)   bands (ev):

   -19.5002 -19.2366 -19.2365 -14.4680 -14.1927 -12.2877  -9.6519  -9.6519
    -9.2198  -8.2720  -8.2720  -7.9330  -7.2691  -6.9655  -6.9655  -1.9172
    -1.5049   3.9795   4.3447   4.3448   4.5303   4.5303   4.8830   5.0516
     5.2473   5.2473   5.3806   5.7537   5.7537   7.1998   7.5564   7.5564
     7.9506   8.2373   8.2373   8.2970   8.5610   8.5610   8.9508   9.7566
    10.0057  10.0057  11.0043  11.1478

     Writing output data file ../tmp/grp.save/

     init_run     :      0.25s CPU      0.20s WALL (       1 calls)
     electrons    :   1329.18s CPU    702.71s WALL (       1 calls)

     Called by init_run:
     wfcinit      :      0.00s CPU      0.00s WALL (       1 calls)
     potinit      :      0.09s CPU      0.06s WALL (       1 calls)
     hinit0       :      0.06s CPU      0.04s WALL (       1 calls)

     Called by electrons:
     c_bands      :   1329.18s CPU    702.70s WALL (       1 calls)
     v_of_rho     :      0.09s CPU      0.06s WALL (       1 calls)

     Called by c_bands:
     init_us_2    :      0.50s CPU      0.31s WALL (      89 calls)
     cegterg      :   1217.71s CPU    639.36s WALL (     311 calls)

     Called by *egterg:
     cdiaghg      :     15.68s CPU     10.99s WALL (    5542 calls)
     h_psi        :   1099.84s CPU    554.41s WALL (    5853 calls)
     g_psi        :      7.83s CPU      3.91s WALL (    5453 calls)

     Called by h_psi:
     h_psi:calbec :     50.91s CPU     25.75s WALL (    5853 calls)
     vloc_psi     :    989.25s CPU    497.41s WALL (    5853 calls)
     add_vuspsi   :     53.82s CPU     27.79s WALL (    5853 calls)

     General routines
     calbec       :     50.87s CPU     25.74s WALL (    5853 calls)
     fft          :      0.03s CPU      0.02s WALL (      10 calls)
     fftw         :    898.66s CPU    451.36s WALL (  257188 calls)
     davcio       :      0.44s CPU      0.51s WALL (     178 calls)


     PWSCF        :  22m10.45s CPU  11m43.93s WALL


   This run was terminated on:  15:48:49  26Jul2020            

=------------------------------------------------------------------------------=
   JOB DONE.
=------------------------------------------------------------------------------=
