
     Program PWSCF v.5.0.2 (svn rev. 9656) starts on 23Nov2013 at 18: 3: 3 

     This program is part of the open-source Quantum ESPRESSO suite
     for quantum simulation of materials; please cite
         "P. Giannozzi et al., J. Phys.:Condens. Matter 21 395502 (2009);
          URL http://www.quantum-espresso.org", 
     in publications or presentations arising from this work. More details at
     http://www.quantum-espresso.org/quote.php

     Parallel version (MPI), running on     2 processors
     K-points division:     npool     =       2

     Current dimensions of program PWSCF are:
     Max number of different atomic species (ntypx) = 10
     Max number of k-points (npk) =  40000
     Max angular momentum in pseudopotentials (lmaxx) =  3
     Reading input from BaTiO3.scf

     Subspace diagonalization in iterative solution of the eigenvalue problem:
     a serial algorithm will be used

     Found symmetry operation: I + (  0.0000  0.0000 -0.5000)
     This is a supercell, fractional translations are disabled

     G-vector sticks info
     --------------------
     sticks:   dense  smooth     PW     G-vecs:    dense   smooth      PW
     Sum        1757     697    213               111459    28091    4685



     bravais-lattice index     =            6
     lattice parameter (alat)  =       7.4427  a.u.
     unit-cell volume          =     824.5453 (a.u.)^3
     number of atoms/cell      =           10
     number of atomic types    =            3
     number of electrons       =        80.00
     number of Kohn-Sham states=           40
     kinetic-energy cutoff     =      40.0000  Ry
     charge density cutoff     =     400.0000  Ry
     convergence threshold     =      1.0E-10
     mixing beta               =       0.7000
     number of iterations used =            8  plain     mixing
     Exchange-correlation      = SLA  PW   PBE  PBE ( 1 4 3 4 0)
     EXX-fraction              =        0.00

     celldm(1)=   7.442660  celldm(2)=   0.000000  celldm(3)=   2.000000
     celldm(4)=   0.000000  celldm(5)=   0.000000  celldm(6)=   0.000000

     crystal axes: (cart. coord. in units of alat)
               a(1) = (   1.000000   0.000000   0.000000 )  
               a(2) = (   0.000000   1.000000   0.000000 )  
               a(3) = (   0.000000   0.000000   2.000000 )  

     reciprocal axes: (cart. coord. in units 2 pi/alat)
               b(1) = (  1.000000  0.000000  0.000000 )  
               b(2) = (  0.000000  1.000000  0.000000 )  
               b(3) = (  0.000000  0.000000  0.500000 )  


     PseudoPot. # 1 for O  read from file:
     ../pseudo/O.pbe-van_ak.UPF
     MD5 check sum: 78c19812648e8988a0fe644b0f25305e
     Pseudo is Ultrasoft, Zval =  6.0
     Generated by new atomic code, or converted to UPF format
     Using radial grid of  737 points,  4 beta functions with: 
                l(1) =   0
                l(2) =   0
                l(3) =   1
                l(4) =   1
     Q(r) pseudized with  8 coefficients,  rinner =    0.800   0.800   0.800


     PseudoPot. # 2 for Ti read from file:
     ../pseudo/Ti.pbe-sp-van_ak.UPF
     MD5 check sum: 8e4df49b7f0d34bbd5052bf3f5ea0213
     Pseudo is Ultrasoft, Zval = 12.0
     Generated by new atomic code, or converted to UPF format
     Using radial grid of  851 points,  6 beta functions with: 
                l(1) =   0
                l(2) =   0
                l(3) =   1
                l(4) =   1
                l(5) =   2
                l(6) =   2
     Q(r) pseudized with  8 coefficients,  rinner =    1.000   1.000   1.000
                                                       1.000   1.000

     PseudoPot. # 3 for ba read from file:
     ../pseudo/Ba-vdb-usp-pbe.UPF
     MD5 check sum: 0d37213a1bd7f8706775231ea1471c4b
     Pseudo is Ultrasoft, Zval = 10.0
     Generated by new atomic code, or converted to UPF format
     Using radial grid of  881 points,  6 beta functions with: 
                l(1) =   0
                l(2) =   0
                l(3) =   1
                l(4) =   1
                l(5) =   2
                l(6) =   2
     Q(r) pseudized with  8 coefficients,  rinner =    0.800   0.800   0.800
                                                       0.800   0.800

     atomic species   valence    mass     pseudopotential
        O              6.00     8.00000     O ( 1.00)
        Ti            12.00    22.00000     Ti( 1.00)
        Ba            10.00    56.00000     ba( 1.00)

     16 Sym. Ops., with inversion, found



   Cartesian axes

     site n.     atom                  positions (alat units)
         1           Ba  tau(   1) = (   0.0000000   0.0000000   0.0000000  )
         2           Ti  tau(   2) = (   0.5000000   0.5000000   0.5000000  )
         3           O   tau(   3) = (   0.0000000   0.5000000   0.5000000  )
         4           O   tau(   4) = (   0.5000000   0.5000000   0.0000000  )
         5           O   tau(   5) = (   0.5000000   0.0000000   0.5000000  )
         6           Ba  tau(   6) = (   0.0000000   0.0000000   1.0000000  )
         7           Ti  tau(   7) = (   0.5000000   0.5000000   1.5000000  )
         8           O   tau(   8) = (   0.0000000   0.5000000   1.5000000  )
         9           O   tau(   9) = (   0.5000000   0.5000000   1.0000000  )
        10           O   tau(  10) = (   0.5000000   0.0000000   1.5000000  )

     number of k points=    45
                       cart. coord. in units 2pi/alat
        k(    1) = (   0.0000000   0.0000000   0.0000000), wk =   0.0078125
        k(    2) = (   0.0000000   0.0000000   0.1250000), wk =   0.0156250
        k(    3) = (   0.0000000   0.0000000  -0.2500000), wk =   0.0078125
        k(    4) = (   0.0000000   0.1250000   0.0000000), wk =   0.0312500
        k(    5) = (   0.0000000   0.1250000   0.1250000), wk =   0.0625000
        k(    6) = (   0.0000000   0.1250000  -0.2500000), wk =   0.0312500
        k(    7) = (   0.0000000   0.2500000   0.0000000), wk =   0.0312500
        k(    8) = (   0.0000000   0.2500000   0.1250000), wk =   0.0625000
        k(    9) = (   0.0000000   0.2500000  -0.2500000), wk =   0.0312500
        k(   10) = (   0.0000000   0.3750000   0.0000000), wk =   0.0312500
        k(   11) = (   0.0000000   0.3750000   0.1250000), wk =   0.0625000
        k(   12) = (   0.0000000   0.3750000  -0.2500000), wk =   0.0312500
        k(   13) = (   0.0000000  -0.5000000   0.0000000), wk =   0.0156250
        k(   14) = (   0.0000000  -0.5000000   0.1250000), wk =   0.0312500
        k(   15) = (   0.0000000  -0.5000000  -0.2500000), wk =   0.0156250
        k(   16) = (   0.1250000   0.1250000   0.0000000), wk =   0.0312500
        k(   17) = (   0.1250000   0.1250000   0.1250000), wk =   0.0625000
        k(   18) = (   0.1250000   0.1250000  -0.2500000), wk =   0.0312500
        k(   19) = (   0.1250000   0.2500000   0.0000000), wk =   0.0625000
        k(   20) = (   0.1250000   0.2500000   0.1250000), wk =   0.1250000
        k(   21) = (   0.1250000   0.2500000  -0.2500000), wk =   0.0625000
        k(   22) = (   0.1250000   0.3750000   0.0000000), wk =   0.0625000
        k(   23) = (   0.1250000   0.3750000   0.1250000), wk =   0.1250000
        k(   24) = (   0.1250000   0.3750000  -0.2500000), wk =   0.0625000
        k(   25) = (   0.1250000  -0.5000000   0.0000000), wk =   0.0312500
        k(   26) = (   0.1250000  -0.5000000   0.1250000), wk =   0.0625000
        k(   27) = (   0.1250000  -0.5000000  -0.2500000), wk =   0.0312500
        k(   28) = (   0.2500000   0.2500000   0.0000000), wk =   0.0312500
        k(   29) = (   0.2500000   0.2500000   0.1250000), wk =   0.0625000
        k(   30) = (   0.2500000   0.2500000  -0.2500000), wk =   0.0312500
        k(   31) = (   0.2500000   0.3750000   0.0000000), wk =   0.0625000
        k(   32) = (   0.2500000   0.3750000   0.1250000), wk =   0.1250000
        k(   33) = (   0.2500000   0.3750000  -0.2500000), wk =   0.0625000
        k(   34) = (   0.2500000  -0.5000000   0.0000000), wk =   0.0312500
        k(   35) = (   0.2500000  -0.5000000   0.1250000), wk =   0.0625000
        k(   36) = (   0.2500000  -0.5000000  -0.2500000), wk =   0.0312500
        k(   37) = (   0.3750000   0.3750000   0.0000000), wk =   0.0312500
        k(   38) = (   0.3750000   0.3750000   0.1250000), wk =   0.0625000
        k(   39) = (   0.3750000   0.3750000  -0.2500000), wk =   0.0312500
        k(   40) = (   0.3750000  -0.5000000   0.0000000), wk =   0.0312500
        k(   41) = (   0.3750000  -0.5000000   0.1250000), wk =   0.0625000
        k(   42) = (   0.3750000  -0.5000000  -0.2500000), wk =   0.0312500
        k(   43) = (  -0.5000000  -0.5000000   0.0000000), wk =   0.0078125
        k(   44) = (  -0.5000000  -0.5000000   0.1250000), wk =   0.0156250
        k(   45) = (  -0.5000000  -0.5000000  -0.2500000), wk =   0.0078125

     Dense  grid:   111459 G-vectors     FFT dimensions: (  48,  48,  96)

     Smooth grid:    28091 G-vectors     FFT dimensions: (  30,  30,  60)

     Largest allocated arrays     est. size (Mb)     dimensions
        Kohn-Sham Wavefunctions         2.17 Mb     (   3558,   40)
        NL pseudopotentials             6.51 Mb     (   3558,  120)
        Each V/rho on FFT grid          3.38 Mb     ( 221184)
        Each G-vector array             0.85 Mb     ( 111459)
        G-vector shells                 0.01 Mb     (   1032)
     Largest temporary arrays     est. size (Mb)     dimensions
        Auxiliary wavefunctions         8.69 Mb     (   3558,  160)
        Each subspace H/S matrix        0.39 Mb     ( 160, 160)
        Each <psi_i|beta_j> matrix      0.07 Mb     (    120,   40)
        Arrays for rho mixing          27.00 Mb     ( 221184,   8)

     Initial potential from superposition of free atoms

     starting charge   77.97277, renormalised to   80.00000
     Starting wfc are   54 randomized atomic wfcs

     total cpu time spent up to now is       35.5 secs

     per-process dynamical memory:    66.1 Mb

     Self-consistent Calculation

     iteration #  1     ecut=    40.00 Ry     beta=0.70
     Davidson diagonalization with overlap
     ethr =  1.00E-02,  avg # of iterations =  2.0

     total cpu time spent up to now is       90.0 secs

     total energy              =    -528.68500514 Ry
     Harris-Foulkes estimate   =    -529.95627516 Ry
     estimated scf accuracy    <       1.64089683 Ry

     iteration #  2     ecut=    40.00 Ry     beta=0.70
     Davidson diagonalization with overlap
     ethr =  2.05E-03,  avg # of iterations =  5.7

     total cpu time spent up to now is      189.1 secs

     total energy              =    -526.08114424 Ry
     Harris-Foulkes estimate   =    -531.66649272 Ry
     estimated scf accuracy    <      24.25512353 Ry

     iteration #  3     ecut=    40.00 Ry     beta=0.70
     Davidson diagonalization with overlap
     ethr =  2.05E-03,  avg # of iterations =  4.9

     total cpu time spent up to now is      273.8 secs

     total energy              =    -529.35620234 Ry
     Harris-Foulkes estimate   =    -529.46310025 Ry
     estimated scf accuracy    <       0.22104417 Ry

     iteration #  4     ecut=    40.00 Ry     beta=0.70
     Davidson diagonalization with overlap
     ethr =  2.76E-04,  avg # of iterations =  3.8

     total cpu time spent up to now is      334.1 secs

     total energy              =    -529.49295321 Ry
     Harris-Foulkes estimate   =    -529.51735854 Ry
     estimated scf accuracy    <       0.10834390 Ry

     iteration #  5     ecut=    40.00 Ry     beta=0.70
     Davidson diagonalization with overlap
     ethr =  1.35E-04,  avg # of iterations =  4.7

     total cpu time spent up to now is      388.8 secs

     total energy              =    -529.61573224 Ry
     Harris-Foulkes estimate   =    -529.63344460 Ry
     estimated scf accuracy    <       0.12385562 Ry

     iteration #  6     ecut=    40.00 Ry     beta=0.70
     Davidson diagonalization with overlap
     ethr =  1.35E-04,  avg # of iterations =  2.7

     total cpu time spent up to now is      440.3 secs

     total energy              =    -529.61197897 Ry
     Harris-Foulkes estimate   =    -529.62186740 Ry
     estimated scf accuracy    <       0.04969140 Ry

     iteration #  7     ecut=    40.00 Ry     beta=0.70
     Davidson diagonalization with overlap
     ethr =  6.21E-05,  avg # of iterations =  3.4

     total cpu time spent up to now is      495.0 secs

     total energy              =    -529.63087900 Ry
     Harris-Foulkes estimate   =    -529.63515378 Ry
     estimated scf accuracy    <       0.01574772 Ry

     iteration #  8     ecut=    40.00 Ry     beta=0.70
     Davidson diagonalization with overlap
     ethr =  1.97E-05,  avg # of iterations =  3.4

     total cpu time spent up to now is      554.2 secs

     total energy              =    -529.63773479 Ry
     Harris-Foulkes estimate   =    -529.63805995 Ry
     estimated scf accuracy    <       0.00096533 Ry

     iteration #  9     ecut=    40.00 Ry     beta=0.70
     Davidson diagonalization with overlap
     ethr =  1.21E-06,  avg # of iterations =  4.2

     total cpu time spent up to now is      626.5 secs

     total energy              =    -529.63825818 Ry
     Harris-Foulkes estimate   =    -529.63828046 Ry
     estimated scf accuracy    <       0.00013646 Ry

     iteration # 10     ecut=    40.00 Ry     beta=0.70
     Davidson diagonalization with overlap
     ethr =  1.71E-07,  avg # of iterations =  2.4

     total cpu time spent up to now is      676.8 secs

     total energy              =    -529.64601745 Ry
     Harris-Foulkes estimate   =    -529.64602586 Ry
     estimated scf accuracy    <       0.00006108 Ry

     iteration # 11     ecut=    40.00 Ry     beta=0.70
     Davidson diagonalization with overlap
     ethr =  7.63E-08,  avg # of iterations =  1.1

     total cpu time spent up to now is      727.0 secs

     total energy              =    -529.64600335 Ry
     Harris-Foulkes estimate   =    -529.64601883 Ry
     estimated scf accuracy    <       0.00003982 Ry

     iteration # 12     ecut=    40.00 Ry     beta=0.70
     Davidson diagonalization with overlap
     ethr =  4.98E-08,  avg # of iterations =  4.0

     total cpu time spent up to now is      790.1 secs

     total energy              =    -529.64601167 Ry
     Harris-Foulkes estimate   =    -529.64601162 Ry
     estimated scf accuracy    <       0.00000130 Ry

     iteration # 13     ecut=    40.00 Ry     beta=0.70
     Davidson diagonalization with overlap
     ethr =  1.62E-09,  avg # of iterations =  4.1

     total cpu time spent up to now is      855.3 secs

     total energy              =    -529.64601180 Ry
     Harris-Foulkes estimate   =    -529.64601204 Ry
     estimated scf accuracy    <       0.00000230 Ry

     iteration # 14     ecut=    40.00 Ry     beta=0.70
     Davidson diagonalization with overlap
     ethr =  1.62E-09,  avg # of iterations =  1.0

     total cpu time spent up to now is      904.7 secs

     total energy              =    -529.64601132 Ry
     Harris-Foulkes estimate   =    -529.64601182 Ry
     estimated scf accuracy    <       0.00000176 Ry

     iteration # 15     ecut=    40.00 Ry     beta=0.70
     Davidson diagonalization with overlap
     ethr =  1.62E-09,  avg # of iterations =  3.2

     total cpu time spent up to now is      966.0 secs

     total energy              =    -529.64601156 Ry
     Harris-Foulkes estimate   =    -529.64601157 Ry
     estimated scf accuracy    <       0.00000005 Ry

     iteration # 16     ecut=    40.00 Ry     beta=0.70
     Davidson diagonalization with overlap
     ethr =  5.69E-11,  avg # of iterations =  2.8

     total cpu time spent up to now is     1021.7 secs

     total energy              =    -529.64601156 Ry
     Harris-Foulkes estimate   =    -529.64601157 Ry
     estimated scf accuracy    <       0.00000002 Ry

     iteration # 17     ecut=    40.00 Ry     beta=0.70
     Davidson diagonalization with overlap
     ethr =  2.60E-11,  avg # of iterations =  3.8

     total cpu time spent up to now is     1082.4 secs

     total energy              =    -529.64601156 Ry
     Harris-Foulkes estimate   =    -529.64601156 Ry
     estimated scf accuracy    <          2.3E-10 Ry

     iteration # 18     ecut=    40.00 Ry     beta=0.70
     Davidson diagonalization with overlap
     ethr =  2.90E-13,  avg # of iterations =  4.8

     total cpu time spent up to now is     1168.7 secs

     total energy              =    -529.64601156 Ry
     Harris-Foulkes estimate   =    -529.64601156 Ry
     estimated scf accuracy    <          6.2E-10 Ry

     iteration # 19     ecut=    40.00 Ry     beta=0.70
     Davidson diagonalization with overlap
     ethr =  2.90E-13,  avg # of iterations =  4.1

     total cpu time spent up to now is     1246.8 secs

     End of self-consistent calculation

          k = 0.0000 0.0000 0.0000 (  3541 PWs)   bands (ev):

   -45.3105 -45.3091 -21.6384 -21.5718 -21.5718 -21.5718 -21.5688 -21.5688
   -13.5961 -13.4394  -6.2442  -5.9147  -5.2610  -5.2610  -5.2208  -4.8681
     1.2200   1.2200   1.2200   1.4219   1.4219   1.7397   6.9484   8.2019
     8.2019   8.8041   8.8041   8.8041   9.0187   9.0803   9.1870   9.1870
     9.8869   9.8869   9.8869  10.3714  10.3714  10.9846  10.9846  10.9846

          k = 0.0000 0.0000 0.1250 (  3542 PWs)   bands (ev):

   -45.3103 -45.3093 -21.6286 -21.5817 -21.5713 -21.5713 -21.5694 -21.5694
   -13.5739 -13.4631  -6.1787  -5.9320  -5.2552  -5.2433  -5.2267  -4.9520
     1.2481   1.2481   1.2975   1.3907   1.3907   1.6645   7.2093   8.3154
     8.3154   8.5222   8.7498   8.7498   9.1289   9.2318   9.2318   9.2811
     9.7006   9.7006   9.7364  10.4413  10.4413  10.5742  10.8635  10.8635

          k = 0.0000 0.0000-0.2500 (  3558 PWs)   bands (ev):

   -45.3098 -45.3098 -21.6054 -21.6054 -21.5704 -21.5704 -21.5704 -21.5704
   -13.5192 -13.5192  -6.0336  -6.0336  -5.2410  -5.2410  -5.1283  -5.1282
     1.3178   1.3178   1.3178   1.3178   1.4821   1.4821   7.8558   7.8558
     8.5644   8.5644   8.5644   8.5644   9.3965   9.3965   9.3965   9.3965
     9.4127   9.4127   9.8370   9.8370  10.6314  10.6314  10.6314  10.6314

          k = 0.0000 0.1250 0.0000 (  3551 PWs)   bands (ev):

   -45.3103 -45.3089 -21.6379 -21.5817 -21.5786 -21.5713 -21.5713 -21.5687
   -13.5739 -13.4258  -6.1628  -5.9320  -5.2552  -5.2433  -5.2033  -4.9099
     1.2481   1.2481   1.2975   1.3813   1.4574   1.6524   6.9164   8.1680
     8.2043   8.2595   8.5222   8.7498   8.7498   9.0356   9.2183   9.7006
     9.7006   9.7364   9.9503  10.1023  10.1661  10.5742  10.8635  10.8635

          k = 0.0000 0.1250 0.1250 (  3532 PWs)   bands (ev):

   -45.3101 -45.3091 -21.6280 -21.5814 -21.5808 -21.5789 -21.5709 -21.5690
   -13.5528 -13.4481  -6.1064  -5.9305  -5.2475  -5.2378  -5.2111  -4.9894
     1.2198   1.2771   1.3377   1.4003   1.4250   1.6276   7.1666   8.2021
     8.3178   8.3394   8.4536   8.6074   8.7113   9.0724   9.3143   9.3366
     9.5231   9.8781   9.9007  10.2456  10.2833  10.2918  10.7217  10.7323

          k = 0.0000 0.1250-0.2500 (  3538 PWs)   bands (ev):

   -45.3096 -45.3096 -21.6048 -21.6048 -21.5800 -21.5800 -21.5700 -21.5700
   -13.5011 -13.5011  -5.9902  -5.9902  -5.2297  -5.2297  -5.1495  -5.1495
     1.2576   1.2576   1.3494   1.3494   1.5381   1.5381   7.7679   7.7679
     8.3817   8.3817   8.5581   8.5581   8.8634   8.8634   9.2233   9.2233
     9.6693   9.6693   9.9134   9.9134  10.4579  10.4579  10.5380  10.5380

          k = 0.0000 0.2500 0.0000 (  3531 PWs)   bands (ev):

   -45.3098 -45.3084 -21.6360 -21.6054 -21.6017 -21.5704 -21.5704 -21.5676
   -13.5192 -13.3925  -6.0336  -5.9540  -5.2410  -5.1677  -5.1283  -5.0120
     1.2969   1.3178   1.3178   1.4546   1.4821   1.5464   6.8544   7.5150
     7.7834   7.8558   8.2100   8.5644   8.5644   8.6863   9.3965   9.3965
     9.4127   9.6534   9.7829   9.8370   9.9383  10.5656  10.6314  10.6314

          k = 0.0000 0.2500 0.1250 (  3535 PWs)   bands (ev):

   -45.3096 -45.3087 -21.6268 -21.6048 -21.6022 -21.5800 -21.5700 -21.5680
   -13.5011 -13.4115  -5.9902  -5.9326  -5.2297  -5.1835  -5.1495  -5.0635
     1.2483   1.2576   1.3494   1.5108   1.5125   1.5381   7.0734   7.6772
     7.7679   7.8562   8.3237   8.3817   8.5581   8.7095   8.8634   9.2233
     9.5512   9.6693   9.8785   9.9134  10.0049  10.4579  10.5380  10.6037

          k = 0.0000 0.2500-0.2500 (  3542 PWs)   bands (ev):

   -45.3091 -45.3091 -21.6041 -21.6041 -21.6029 -21.6029 -21.5690 -21.5690
   -13.4568 -13.4568  -5.9258  -5.9258  -5.2126  -5.2126  -5.1422  -5.1422
     1.2154   1.2154   1.4281   1.4281   1.5655   1.5655   7.5021   7.5021
     7.9870   7.9871   8.2765   8.2766   8.5078   8.5078   8.8785   8.8785
     9.5171   9.5171  10.0091  10.0091  10.1361  10.1361  10.6149  10.6149

          k = 0.0000 0.3750 0.0000 (  3499 PWs)   bands (ev):

   -45.3093 -45.3080 -21.6344 -21.6286 -21.6244 -21.5694 -21.5694 -21.5665
   -13.4631 -13.3585  -6.1787  -5.7173  -5.2267  -5.1515  -5.1154  -4.9520
     1.2298   1.2751   1.3907   1.3907   1.6404   1.6645   6.7568   7.0120
     7.2093   7.2334   8.2159   8.3154   8.3154   8.3528   9.1289   9.2318
     9.2318   9.2812   9.4833  10.0721  10.1250  10.4413  10.4413  10.8949

          k = 0.0000 0.3750 0.1250 (  3509 PWs)   bands (ev):

   -45.3091 -45.3082 -21.6280 -21.6254 -21.6247 -21.5789 -21.5690 -21.5670
   -13.4481 -13.3742  -6.1064  -5.7715  -5.2111  -5.1750  -5.0969  -4.9894
     1.2088   1.3377   1.3667   1.4250   1.6014   1.6276   6.9053   7.1666
     7.2255   7.3273   8.2021   8.3082   8.3178   8.3923   8.4536   9.0724
     9.3366   9.5892   9.8264   9.8781  10.1667  10.2456  10.2833  10.8374

          k = 0.0000 0.3750-0.2500 (  3532 PWs)   bands (ev):

   -45.3087 -45.3087 -21.6268 -21.6268 -21.6022 -21.6022 -21.5680 -21.5680
   -13.4115 -13.4115  -5.9326  -5.9325  -5.1835  -5.1835  -5.0635  -5.0635
     1.2483   1.2483   1.5108   1.5108   1.5125   1.5125   7.0734   7.0734
     7.6772   7.6772   7.8562   7.8562   8.3237   8.3237   8.7095   8.7095
     9.5512   9.5512   9.8785   9.8785  10.0049  10.0049  10.6037  10.6037

          k = 0.0000-0.5000 0.0000 (  3490 PWs)   bands (ev):

   -45.3091 -45.3078 -21.6384 -21.6338 -21.6338 -21.5688 -21.5688 -21.5662
   -13.4394 -13.3443  -6.2442  -5.6028  -5.2208  -5.1587  -5.1587  -4.8681
     1.2064   1.2064   1.4219   1.4219   1.6811   1.7397   6.6483   6.8345
     6.9484   7.0617   8.2019   8.2019   8.2183   8.2183   9.0187   9.0803
     9.1870   9.1870   9.3749  10.2416  10.2416  10.3714  10.3714  10.9871

          k = 0.0000-0.5000 0.1250 (  3508 PWs)   bands (ev):

   -45.3089 -45.3080 -21.6379 -21.6344 -21.6244 -21.5786 -21.5687 -21.5665
   -13.4258 -13.3585  -6.1628  -5.7173  -5.2033  -5.1515  -5.1154  -4.9099
     1.2298   1.2751   1.3813   1.4574   1.6404   1.6524   6.7568   6.9164
     7.0120   7.2334   8.1681   8.2043   8.2159   8.2595   8.3528   9.0356
     9.2183   9.4833   9.9503  10.0721  10.1023  10.1250  10.1661  10.8949

          k = 0.0000-0.5000-0.2500 (  3504 PWs)   bands (ev):

   -45.3084 -45.3084 -21.6360 -21.6360 -21.6017 -21.6017 -21.5676 -21.5676
   -13.3925 -13.3925  -5.9540  -5.9540  -5.1677  -5.1677  -5.0120  -5.0120
     1.2969   1.2969   1.4546   1.4546   1.5464   1.5464   6.8544   6.8544
     7.5150   7.5150   7.7834   7.7834   8.2100   8.2100   8.6862   8.6862
     9.6534   9.6534   9.7829   9.7829   9.9383   9.9383  10.5656  10.5656

          k = 0.1250 0.1250 0.0000 (  3535 PWs)   bands (ev):

   -45.3101 -45.3087 -21.6371 -21.5814 -21.5808 -21.5783 -21.5780 -21.5709
   -13.5528 -13.4124  -6.0807  -5.9305  -5.2475  -5.2378  -5.1843  -4.9406
     1.2198   1.2461   1.2771   1.4003   1.5413   1.5586   6.8914   8.0353
     8.1441   8.2269   8.3394   8.6074   8.6960   8.7113   9.3143   9.5230
     9.7488   9.8228   9.9007   9.9791  10.0810  10.2918  10.7217  10.7323

          k = 0.1250 0.1250 0.1250 (  3550 PWs)   bands (ev):

   -45.3099 -45.3089 -21.6275 -21.5813 -21.5806 -21.5806 -21.5787 -21.5784
   -13.5328 -13.4336  -6.0326  -5.9152  -5.2384  -5.2384  -5.1937  -5.0177
     1.2243   1.2243   1.2429   1.3811   1.5199   1.6625   7.1277   8.0335
     8.1549   8.2834   8.4150   8.5699   8.5699   8.7514   9.2225   9.2225
     9.6040   9.8852   9.9907  10.0434  10.1702  10.1935  10.6267  10.6267

          k = 0.1250 0.1250-0.2500 (  3554 PWs)   bands (ev):

   -45.3094 -45.3094 -21.6043 -21.6043 -21.5800 -21.5800 -21.5795 -21.5795
   -13.4838 -13.4838  -5.9415  -5.9415  -5.2162  -5.2162  -5.1675  -5.1675
     1.2343   1.2343   1.2502   1.2502   1.6489   1.6489   7.6643   7.6643
     8.2716   8.2716   8.4387   8.4387   8.8847   8.8847   8.9075   8.9075
     9.5840   9.5840  10.0207  10.0207  10.3906  10.3906  10.4561  10.4561

          k = 0.1250 0.2500 0.0000 (  3523 PWs)   bands (ev):

   -45.3096 -45.3083 -21.6355 -21.6048 -21.6012 -21.5800 -21.5772 -21.5700
   -13.5011 -13.3797  -5.9902  -5.8702  -5.2297  -5.1495  -5.1447  -5.0171
     1.1135   1.2576   1.3459   1.3494   1.5381   1.5576   6.8439   7.5505
     7.7679   7.8026   8.2299   8.3817   8.5581   8.6242   8.8634   9.2233
     9.3370   9.6693   9.9134   9.9638   9.9959  10.4579  10.5352  10.5380

          k = 0.1250 0.2500 0.1250 (  3545 PWs)   bands (ev):

   -45.3094 -45.3085 -21.6262 -21.6043 -21.6018 -21.5800 -21.5795 -21.5777
   -13.4838 -13.3979  -5.9415  -5.8542  -5.2162  -5.1675  -5.1615  -5.0715
     1.1318   1.2343   1.2502   1.2586   1.6489   1.6520   7.0487   7.6343
     7.6643   7.8927   8.2716   8.3514   8.4387   8.6454   8.8847   8.9075
     9.2576   9.5840   9.9577  10.0207  10.1346  10.3906  10.4561  10.5558

          k = 0.1250 0.2500-0.2500 (  3520 PWs)   bands (ev):

   -45.3089 -45.3089 -21.6034 -21.6034 -21.6024 -21.6024 -21.5786 -21.5786
   -13.4413 -13.4413  -5.8621  -5.8621  -5.1957  -5.1957  -5.1538  -5.1538
     1.1637   1.1637   1.2134   1.2134   1.7178   1.7178   7.4009   7.4009
     7.9710   7.9710   8.1609   8.1609   8.5930   8.5930   8.7730   8.7730
     9.2056   9.2056  10.1549  10.1549  10.1861  10.1862  10.5371  10.5371

          k = 0.1250 0.3750 0.0000 (  3497 PWs)   bands (ev):

   -45.3091 -45.3078 -21.6338 -21.6280 -21.6239 -21.5789 -21.5761 -21.5690
   -13.4481 -13.3463  -6.1064  -5.6312  -5.2111  -5.1243  -5.0968  -4.9894
     1.0694   1.1516   1.3377   1.4250   1.4932   1.6276   6.7607   7.1666
     7.2374   7.2470   8.2021   8.2931   8.3178   8.4426   8.4536   9.0547
     9.0724   9.3366   9.8781  10.1828  10.1891  10.2456  10.2833  10.8936

          k = 0.1250 0.3750 0.1250 (  3524 PWs)   bands (ev):

   -45.3089 -45.3080 -21.6275 -21.6249 -21.6245 -21.5787 -21.5784 -21.5767
   -13.4336 -13.3616  -6.0326  -5.6877  -5.1937  -5.1503  -5.0849  -5.0177
     1.1017   1.1451   1.2429   1.3811   1.5612   1.6625   6.9139   7.1277
     7.3244   7.3767   8.0335   8.2834   8.3675   8.4150   8.4541   8.7514
     9.1265   9.6040   9.8852   9.9824  10.1702  10.1935  10.2636  10.8216

          k = 0.1250 0.3750-0.2500 (  3536 PWs)   bands (ev):

   -45.3085 -45.3085 -21.6262 -21.6262 -21.6018 -21.6018 -21.5777 -21.5777
   -13.3979 -13.3979  -5.8542  -5.8542  -5.1615  -5.1615  -5.0715  -5.0715
     1.1318   1.1318   1.2586   1.2586   1.6520   1.6520   7.0487   7.0487
     7.6343   7.6343   7.8927   7.8928   8.3514   8.3514   8.6453   8.6454
     9.2576   9.2576   9.9577   9.9577  10.1346  10.1346  10.5558  10.5558

          k = 0.1250-0.5000 0.0000 (  3512 PWs)   bands (ev):

   -45.3089 -45.3076 -21.6379 -21.6334 -21.6334 -21.5786 -21.5758 -21.5687
   -13.4258 -13.3323  -6.1628  -5.5144  -5.2033  -5.1307  -5.1307  -4.9099
     1.0766   1.0766   1.3813   1.4425   1.4574   1.6524   6.6536   6.9164
     7.0646   7.1581   8.1680   8.2043   8.2595   8.3363   8.3363   8.9249
     9.0356   9.2183   9.9503  10.1023  10.1661  10.3058  10.3058  10.9992

          k = 0.1250-0.5000 0.1250 (  3500 PWs)   bands (ev):

   -45.3087 -45.3078 -21.6371 -21.6338 -21.6239 -21.5783 -21.5780 -21.5761
   -13.4124 -13.3463  -6.0807  -5.6312  -5.1843  -5.1243  -5.0968  -4.9406
     1.0694   1.1516   1.2461   1.4932   1.5413   1.5586   6.7607   6.8914
     7.2374   7.2470   8.0353   8.1441   8.2269   8.2931   8.4426   8.6960
     9.0548   9.7488   9.8228   9.9791  10.0810  10.1828  10.1891  10.8936

          k = 0.1250-0.5000-0.2500 (  3508 PWs)   bands (ev):

   -45.3083 -45.3083 -21.6354 -21.6354 -21.6012 -21.6012 -21.5772 -21.5772
   -13.3797 -13.3797  -5.8702  -5.8702  -5.1447  -5.1446  -5.0172  -5.0172
     1.1135   1.1135   1.3458   1.3459   1.5576   1.5576   6.8439   6.8439
     7.5505   7.5505   7.8026   7.8026   8.2299   8.2299   8.6242   8.6242
     9.3370   9.3370   9.9638   9.9638   9.9959   9.9959  10.5352  10.5352

          k = 0.2500 0.2500 0.0000 (  3527 PWs)   bands (ev):

   -45.3091 -45.3078 -21.6342 -21.6041 -21.6029 -21.6004 -21.6000 -21.5690
   -13.4568 -13.3484  -5.9258  -5.6563  -5.2126  -5.1422  -5.0930  -5.0323
     0.8598   1.0979   1.2154   1.4080   1.4281   1.5655   6.8254   7.5021
     7.6417   7.8261   7.9004   7.9870   8.2765   8.5078   8.6132   8.8623
     8.8785   9.5171  10.0091  10.1119  10.1361  10.4597  10.5394  10.6149

          k = 0.2500 0.2500 0.1250 (  3522 PWs)   bands (ev):

   -45.3089 -45.3080 -21.6248 -21.6034 -21.6024 -21.6010 -21.6004 -21.5786
   -13.4413 -13.3646  -5.8621  -5.6630  -5.1957  -5.1538  -5.1112  -5.0854
     0.9122   1.0288   1.1637   1.2134   1.5548   1.7178   7.0242   7.4009
     7.5845   7.9074   7.9710   8.0763   8.1609   8.5930   8.6129   8.7652
     8.7730   9.2056  10.1549  10.1814  10.1862  10.4549  10.5336  10.5371

          k = 0.2500 0.2500-0.2500 (  3498 PWs)   bands (ev):

   -45.3085 -45.3085 -21.6024 -21.6024 -21.6013 -21.6013 -21.6013 -21.6013
   -13.4033 -13.4033  -5.7319  -5.7319  -5.1540  -5.1540  -5.1540  -5.1540
     1.0383   1.0383   1.0383   1.0383   1.7268   1.7268   7.2340   7.2340
     7.9348   7.9348   7.9348   7.9348   8.4849   8.4849   8.6491   8.6491
     8.6491   8.6491  10.3490  10.3490  10.3490  10.3490  10.4440  10.4440

          k = 0.2500 0.3750 0.0000 (  3518 PWs)   bands (ev):

   -45.3087 -45.3073 -21.6328 -21.6268 -21.6228 -21.6022 -21.5992 -21.5680
   -13.4115 -13.3166  -5.9326  -5.4141  -5.1835  -5.0635  -5.0578  -5.0515
     0.7470   0.8684   1.1364   1.2483   1.5108   1.5125   6.7630   7.0734
     7.2476   7.6772   7.7744   7.8562   7.9537   8.3237   8.5935   8.6547
     8.7095   9.5512   9.8785  10.0049  10.3886  10.5092  10.6037  10.9008

          k = 0.2500 0.3750 0.1250 (  3528 PWs)   bands (ev):

   -45.3085 -45.3075 -21.6262 -21.6237 -21.6234 -21.6018 -21.5996 -21.5777
   -13.3979 -13.3308  -5.8542  -5.4790  -5.1615  -5.0888  -5.0715  -5.0560
     0.8080   0.8522   1.1318   1.2586   1.3052   1.6520   6.9370   7.0487
     7.3222   7.6343   7.7102   7.8927   8.0373   8.3514   8.5696   8.6453
     8.6821   9.2577   9.9577  10.1346  10.3177  10.5009  10.5558  10.8083

          k = 0.2500 0.3750-0.2500 (  3524 PWs)   bands (ev):

   -45.3080 -45.3080 -21.6248 -21.6248 -21.6010 -21.6010 -21.6004 -21.6004
   -13.3646 -13.3646  -5.6630  -5.6630  -5.1112  -5.1111  -5.0854  -5.0854
     0.9122   0.9122   1.0288   1.0288   1.5548   1.5548   7.0242   7.0242
     7.5845   7.5845   7.9074   7.9074   8.0763   8.0763   8.6129   8.6129
     8.7652   8.7652  10.1814  10.1814  10.4549  10.4549  10.5336  10.5336

          k = 0.2500-0.5000 0.0000 (  3516 PWs)   bands (ev):

   -45.3084 -45.3071 -21.6360 -21.6324 -21.6324 -21.6017 -21.5988 -21.5676
   -13.3925 -13.3033  -5.9540  -5.2924  -5.1677  -5.0608  -5.0608  -5.0120
     0.7784   0.7784   0.9516   1.2969   1.4546   1.5464   6.6546   6.8544
     7.0708   7.5150   7.7834   7.8545   8.0091   8.2100   8.5530   8.5530
     8.6862   9.6534   9.7830   9.9383  10.5384  10.5385  10.5656  11.0279

          k = 0.2500-0.5000 0.1250 (  3506 PWs)   bands (ev):

   -45.3083 -45.3073 -21.6354 -21.6328 -21.6228 -21.6012 -21.5992 -21.5772
   -13.3797 -13.3166  -5.8702  -5.4141  -5.1447  -5.0578  -5.0515  -5.0172
     0.7470   0.8684   1.1135   1.1364   1.3459   1.5576   6.7630   6.8439
     7.2476   7.5505   7.7744   7.8026   7.9537   8.2299   8.5935   8.6242
     8.6547   9.3370   9.9638   9.9959  10.3886  10.5092  10.5352  10.9008

          k = 0.2500-0.5000-0.2500 (  3512 PWs)   bands (ev):

   -45.3078 -45.3078 -21.6342 -21.6342 -21.6004 -21.6004 -21.6000 -21.6000
   -13.3484 -13.3484  -5.6563  -5.6563  -5.0930  -5.0930  -5.0323  -5.0323
     0.8598   0.8598   1.0979   1.0979   1.4080   1.4080   6.8254   6.8254
     7.6417   7.6417   7.8261   7.8261   7.9004   7.9004   8.6132   8.6132
     8.8623   8.8623  10.1119  10.1119  10.4597  10.4597  10.5394  10.5394

          k = 0.3750 0.3750 0.0000 (  3510 PWs)   bands (ev):

   -45.3082 -45.3069 -21.6317 -21.6254 -21.6247 -21.6219 -21.6217 -21.5670
   -13.3742 -13.2865  -5.7715  -5.1763  -5.1750  -5.0969  -5.0058  -4.9964
     0.5160   0.6026   0.7566   1.2088   1.3667   1.6014   6.7025   6.9053
     7.2164   7.2255   7.3253   7.3273   8.2668   8.3082   8.3923   8.6714
     8.6797   9.5892   9.8264  10.1667  10.7187  10.8311  10.8374  10.9543

          k = 0.3750 0.3750 0.1250 (  3516 PWs)   bands (ev):

   -45.3080 -45.3071 -21.6249 -21.6245 -21.6226 -21.6221 -21.6221 -21.5767
   -13.3616 -13.2996  -5.6877  -5.2636  -5.1504  -5.0849  -5.0241  -5.0241
     0.6128   0.6128   0.9578   1.1017   1.1451   1.5612   6.8656   6.9139
     7.3241   7.3241   7.3244   7.3767   8.1653   8.3675   8.4541   8.6480
     8.6480   9.1265   9.9824  10.2636  10.6838  10.6838  10.8216  10.8778

          k = 0.3750 0.3750-0.2500 (  3520 PWs)   bands (ev):

   -45.3075 -45.3075 -21.6237 -21.6237 -21.6234 -21.6234 -21.5996 -21.5996
   -13.3308 -13.3308  -5.4790  -5.4790  -5.0888  -5.0888  -5.0560  -5.0560
     0.8080   0.8080   0.8522   0.8522   1.3052   1.3052   6.9370   6.9370
     7.3222   7.3222   7.7102   7.7102   8.0373   8.0373   8.5696   8.5696
     8.6821   8.6822  10.3177  10.3177  10.5009  10.5009  10.8083  10.8083

          k = 0.3750-0.5000 0.0000 (  3496 PWs)   bands (ev):

   -45.3080 -45.3067 -21.6344 -21.6312 -21.6312 -21.6244 -21.6213 -21.5665
   -13.3585 -13.2739  -5.7173  -5.1515  -5.1154  -5.0569  -4.9867  -4.9867
     0.4967   0.4967   0.5387   1.2298   1.2751   1.6404   6.5923   6.7568
     7.0120   7.0778   7.2334   7.2866   8.2159   8.3528   8.4721   8.6803
     8.6803   9.4833  10.0721  10.1250  10.8901  10.8901  10.8949  11.0587

          k = 0.3750-0.5000 0.1250 (  3498 PWs)   bands (ev):

   -45.3078 -45.3069 -21.6338 -21.6317 -21.6239 -21.6219 -21.6217 -21.5761
   -13.3463 -13.2865  -5.6312  -5.1763  -5.1243  -5.0968  -5.0058  -4.9964
     0.5160   0.6026   0.7566   1.0694   1.1516   1.4932   6.7025   6.7607
     7.2164   7.2374   7.2470   7.3253   8.2668   8.2931   8.4426   8.6714
     8.6797   9.0548  10.1828  10.1891  10.7187  10.8311  10.8936  10.9543

          k = 0.3750-0.5000-0.2500 (  3504 PWs)   bands (ev):

   -45.3073 -45.3073 -21.6328 -21.6328 -21.6228 -21.6228 -21.5992 -21.5992
   -13.3166 -13.3166  -5.4141  -5.4140  -5.0578  -5.0578  -5.0515  -5.0515
     0.7470   0.7470   0.8684   0.8684   1.1364   1.1364   6.7630   6.7630
     7.2476   7.2476   7.7744   7.7744   7.9537   7.9537   8.5935   8.5935
     8.6547   8.6547  10.3886  10.3886  10.5092  10.5092  10.9008  10.9008

          k =-0.5000-0.5000 0.0000 (  3476 PWs)   bands (ev):

   -45.3078 -45.3065 -21.6338 -21.6338 -21.6305 -21.6305 -21.6305 -21.5662
   -13.3443 -13.2616  -5.6028  -5.1587  -5.1587  -4.9547  -4.9547  -4.9547
     0.3836   0.3836   0.3836   1.2064   1.2064   1.6811   6.4971   6.6483
     6.8345   7.0617   7.0808   7.0808   8.2183   8.2183   8.7116   8.7116
     8.7116   9.3749  10.2416  10.2416  10.9871  11.0719  11.0719  11.0719

          k =-0.5000-0.5000 0.1250 (  3500 PWs)   bands (ev):

   -45.3076 -45.3067 -21.6334 -21.6334 -21.6312 -21.6312 -21.6213 -21.5758
   -13.3323 -13.2739  -5.5144  -5.1307  -5.1307  -5.0569  -4.9867  -4.9867
     0.4967   0.4967   0.5387   1.0766   1.0766   1.4425   6.5923   6.6536
     7.0646   7.0778   7.1581   7.2866   8.3363   8.3363   8.4721   8.6803
     8.6803   8.9249  10.3058  10.3058  10.8901  10.8901  10.9992  11.0587

          k =-0.5000-0.5000-0.2500 (  3528 PWs)   bands (ev):

   -45.3071 -45.3071 -21.6324 -21.6324 -21.6324 -21.6324 -21.5988 -21.5988
   -13.3033 -13.3033  -5.2924  -5.2924  -5.0608  -5.0608  -5.0608  -5.0608
     0.7784   0.7784   0.7784   0.7784   0.9516   0.9516   6.6546   6.6546
     7.0708   7.0708   7.8545   7.8545   8.0091   8.0091   8.5530   8.5530
     8.5530   8.5530  10.5384  10.5384  10.5385  10.5385  11.0279  11.0279

!    total energy              =    -529.64601156 Ry
     Harris-Foulkes estimate   =    -529.64601156 Ry
     estimated scf accuracy    <          3.6E-11 Ry

     The total energy is the sum of the following terms:

     one-electron contribution =    -139.02847601 Ry
     hartree contribution      =     118.13364235 Ry
     xc contribution           =     -87.35116676 Ry
     ewald contribution        =    -421.40001115 Ry

     convergence has been achieved in  19 iterations

     Writing output data file batio3.save

     init_run     :     34.71s CPU     35.35s WALL (       1 calls)
     electrons    :   1168.91s CPU   1211.36s WALL (       1 calls)

     Called by init_run:
     wfcinit      :     20.61s CPU     20.99s WALL (       1 calls)
     potinit      :      0.98s CPU      1.02s WALL (       1 calls)

     Called by electrons:
     c_bands      :    850.96s CPU    883.10s WALL (      19 calls)
     sum_band     :    202.63s CPU    209.26s WALL (      19 calls)
     v_of_rho     :      9.20s CPU      9.67s WALL (      20 calls)
     newd         :    109.58s CPU    112.66s WALL (      20 calls)
     mix_rho      :      1.09s CPU      1.13s WALL (      19 calls)

     Called by c_bands:
     init_us_2    :     10.42s CPU     11.45s WALL (     897 calls)
     cegterg      :    829.14s CPU    855.64s WALL (     437 calls)

     Called by *egterg:
     h_psi        :    469.02s CPU    484.30s WALL (    1980 calls)
     s_psi        :    121.53s CPU    125.40s WALL (    1980 calls)
     g_psi        :      1.68s CPU      1.72s WALL (    1520 calls)
     cdiaghg      :     19.08s CPU     19.64s WALL (    1957 calls)

     Called by h_psi:
     add_vuspsi   :    120.31s CPU    124.10s WALL (    1980 calls)

     General routines
     calbec       :    166.26s CPU    171.07s WALL (    2417 calls)
     fft          :      4.22s CPU      4.43s WALL (     315 calls)
     ffts         :      0.07s CPU      0.08s WALL (      39 calls)
     fftw         :    186.10s CPU    192.03s WALL (  112804 calls)
     interpolate  :      0.60s CPU      0.64s WALL (      39 calls)
     davcio       :      0.97s CPU      5.62s WALL (    1334 calls)

     Parallel routines
     fft_scatter  :     26.04s CPU     26.55s WALL (  113158 calls)

     PWSCF        : 20m 4.01s CPU    20m47.14s WALL


   This run was terminated on:  18:23:50  23Nov2013            

=------------------------------------------------------------------------------=
   JOB DONE.
=------------------------------------------------------------------------------=
