
     Program PWSCF v.5.0.2 (svn rev. 9656) starts on 14Feb2014 at 19: 6:53 

     This program is part of the open-source Quantum ESPRESSO suite
     for quantum simulation of materials; please cite
         "P. Giannozzi et al., J. Phys.:Condens. Matter 21 395502 (2009);
          URL http://www.quantum-espresso.org", 
     in publications or presentations arising from this work. More details at
     http://www.quantum-espresso.org/quote.php

     Parallel version (MPI), running on     1 processors

     Current dimensions of program PWSCF are:
     Max number of different atomic species (ntypx) = 10
     Max number of k-points (npk) =  40000
     Max angular momentum in pseudopotentials (lmaxx) =  3
     Waiting for input...
     Reading input from standard input

     Atomic positions and unit cell read from directory:
     ./tmp/batio3.save/


     Subspace diagonalization in iterative solution of the eigenvalue problem:
     a serial algorithm will be used

     Found symmetry operation: I + (  0.0000  0.0000 -0.5000)
     This is a supercell, fractional translations are disabled

     G-vector sticks info
     --------------------
     sticks:   dense  smooth     PW     G-vecs:    dense   smooth      PW
     Sum        1757     697    213               111459    28091    4685



     bravais-lattice index     =            6
     lattice parameter (alat)  =       7.4427  a.u.
     unit-cell volume          =     824.5453 (a.u.)^3
     number of atoms/cell      =           10
     number of atomic types    =            3
     number of electrons       =        80.00
     number of Kohn-Sham states=           40
     kinetic-energy cutoff     =      40.0000  Ry
     charge density cutoff     =     400.0000  Ry
     Exchange-correlation      = SLA  PW   PBE  PBE ( 1 4 3 4 0)
     EXX-fraction              =        0.00

     celldm(1)=   7.442660  celldm(2)=   0.000000  celldm(3)=   2.000000
     celldm(4)=   0.000000  celldm(5)=   0.000000  celldm(6)=   0.000000

     crystal axes: (cart. coord. in units of alat)
               a(1) = (   1.000000   0.000000   0.000000 )  
               a(2) = (   0.000000   1.000000   0.000000 )  
               a(3) = (   0.000000   0.000000   2.000000 )  

     reciprocal axes: (cart. coord. in units 2 pi/alat)
               b(1) = (  1.000000  0.000000  0.000000 )  
               b(2) = (  0.000000  1.000000  0.000000 )  
               b(3) = (  0.000000  0.000000  0.500000 )  


     PseudoPot. # 1 for O  read from file:
     ../pseudo/O.pbe-van_ak.UPF
     MD5 check sum: 78c19812648e8988a0fe644b0f25305e
     Pseudo is Ultrasoft, Zval =  6.0
     Generated by new atomic code, or converted to UPF format
     Using radial grid of  737 points,  4 beta functions with: 
                l(1) =   0
                l(2) =   0
                l(3) =   1
                l(4) =   1
     Q(r) pseudized with  8 coefficients,  rinner =    0.800   0.800   0.800


     PseudoPot. # 2 for Ti read from file:
     ../pseudo/Ti.pbe-sp-van_ak.UPF
     MD5 check sum: 8e4df49b7f0d34bbd5052bf3f5ea0213
     Pseudo is Ultrasoft, Zval = 12.0
     Generated by new atomic code, or converted to UPF format
     Using radial grid of  851 points,  6 beta functions with: 
                l(1) =   0
                l(2) =   0
                l(3) =   1
                l(4) =   1
                l(5) =   2
                l(6) =   2
     Q(r) pseudized with  8 coefficients,  rinner =    1.000   1.000   1.000
                                                       1.000   1.000

     PseudoPot. # 3 for ba read from file:
     ../pseudo/Ba-vdb-usp-pbe.UPF
     MD5 check sum: 0d37213a1bd7f8706775231ea1471c4b
     Pseudo is Ultrasoft, Zval = 10.0
     Generated by new atomic code, or converted to UPF format
     Using radial grid of  881 points,  6 beta functions with: 
                l(1) =   0
                l(2) =   0
                l(3) =   1
                l(4) =   1
                l(5) =   2
                l(6) =   2
     Q(r) pseudized with  8 coefficients,  rinner =    0.800   0.800   0.800
                                                       0.800   0.800

     atomic species   valence    mass     pseudopotential
        O              6.00     8.00000     O ( 1.00)
        Ti            12.00    22.00000     Ti( 1.00)
        Ba            10.00    56.00000     ba( 1.00)

     16 Sym. Ops., with inversion, found


                                    s                        frac. trans.

      isym =  1     identity                                     

 cryst.   s( 1) = (     1          0          0      )
                  (     0          1          0      )
                  (     0          0          1      )

 cart.    s( 1) = (  1.0000000  0.0000000  0.0000000 )
                  (  0.0000000  1.0000000  0.0000000 )
                  (  0.0000000  0.0000000  1.0000000 )


      isym =  2     180 deg rotation - cart. axis [0,0,1]        

 cryst.   s( 2) = (    -1          0          0      )
                  (     0         -1          0      )
                  (     0          0          1      )

 cart.    s( 2) = ( -1.0000000  0.0000000  0.0000000 )
                  (  0.0000000 -1.0000000  0.0000000 )
                  (  0.0000000  0.0000000  1.0000000 )


      isym =  3     180 deg rotation - cart. axis [0,1,0]        

 cryst.   s( 3) = (    -1          0          0      )
                  (     0          1          0      )
                  (     0          0         -1      )

 cart.    s( 3) = ( -1.0000000  0.0000000  0.0000000 )
                  (  0.0000000  1.0000000  0.0000000 )
                  (  0.0000000  0.0000000 -1.0000000 )


      isym =  4     180 deg rotation - cart. axis [1,0,0]        

 cryst.   s( 4) = (     1          0          0      )
                  (     0         -1          0      )
                  (     0          0         -1      )

 cart.    s( 4) = (  1.0000000  0.0000000  0.0000000 )
                  (  0.0000000 -1.0000000  0.0000000 )
                  (  0.0000000  0.0000000 -1.0000000 )


      isym =  5     180 deg rotation - cart. axis [1,1,0]        

 cryst.   s( 5) = (     0          1          0      )
                  (     1          0          0      )
                  (     0          0         -1      )

 cart.    s( 5) = (  0.0000000  1.0000000  0.0000000 )
                  (  1.0000000  0.0000000  0.0000000 )
                  (  0.0000000  0.0000000 -1.0000000 )


      isym =  6     180 deg rotation - cart. axis [1,-1,0]       

 cryst.   s( 6) = (     0         -1          0      )
                  (    -1          0          0      )
                  (     0          0         -1      )

 cart.    s( 6) = (  0.0000000 -1.0000000  0.0000000 )
                  ( -1.0000000  0.0000000  0.0000000 )
                  (  0.0000000  0.0000000 -1.0000000 )


      isym =  7      90 deg rotation - cart. axis [0,0,-1]       

 cryst.   s( 7) = (     0         -1          0      )
                  (     1          0          0      )
                  (     0          0          1      )

 cart.    s( 7) = (  0.0000000  1.0000000  0.0000000 )
                  ( -1.0000000  0.0000000  0.0000000 )
                  (  0.0000000  0.0000000  1.0000000 )


      isym =  8      90 deg rotation - cart. axis [0,0,1]        

 cryst.   s( 8) = (     0          1          0      )
                  (    -1          0          0      )
                  (     0          0          1      )

 cart.    s( 8) = (  0.0000000 -1.0000000  0.0000000 )
                  (  1.0000000  0.0000000  0.0000000 )
                  (  0.0000000  0.0000000  1.0000000 )


      isym =  9     inversion                                    

 cryst.   s( 9) = (    -1          0          0      )
                  (     0         -1          0      )
                  (     0          0         -1      )

 cart.    s( 9) = ( -1.0000000  0.0000000  0.0000000 )
                  (  0.0000000 -1.0000000  0.0000000 )
                  (  0.0000000  0.0000000 -1.0000000 )


      isym = 10     inv. 180 deg rotation - cart. axis [0,0,1]   

 cryst.   s(10) = (     1          0          0      )
                  (     0          1          0      )
                  (     0          0         -1      )

 cart.    s(10) = (  1.0000000  0.0000000  0.0000000 )
                  (  0.0000000  1.0000000  0.0000000 )
                  (  0.0000000  0.0000000 -1.0000000 )


      isym = 11     inv. 180 deg rotation - cart. axis [0,1,0]   

 cryst.   s(11) = (     1          0          0      )
                  (     0         -1          0      )
                  (     0          0          1      )

 cart.    s(11) = (  1.0000000  0.0000000  0.0000000 )
                  (  0.0000000 -1.0000000  0.0000000 )
                  (  0.0000000  0.0000000  1.0000000 )


      isym = 12     inv. 180 deg rotation - cart. axis [1,0,0]   

 cryst.   s(12) = (    -1          0          0      )
                  (     0          1          0      )
                  (     0          0          1      )

 cart.    s(12) = ( -1.0000000  0.0000000  0.0000000 )
                  (  0.0000000  1.0000000  0.0000000 )
                  (  0.0000000  0.0000000  1.0000000 )


      isym = 13     inv. 180 deg rotation - cart. axis [1,1,0]   

 cryst.   s(13) = (     0         -1          0      )
                  (    -1          0          0      )
                  (     0          0          1      )

 cart.    s(13) = (  0.0000000 -1.0000000  0.0000000 )
                  ( -1.0000000  0.0000000  0.0000000 )
                  (  0.0000000  0.0000000  1.0000000 )


      isym = 14     inv. 180 deg rotation - cart. axis [1,-1,0]  

 cryst.   s(14) = (     0          1          0      )
                  (     1          0          0      )
                  (     0          0          1      )

 cart.    s(14) = (  0.0000000  1.0000000  0.0000000 )
                  (  1.0000000  0.0000000  0.0000000 )
                  (  0.0000000  0.0000000  1.0000000 )


      isym = 15     inv.  90 deg rotation - cart. axis [0,0,-1]  

 cryst.   s(15) = (     0          1          0      )
                  (    -1          0          0      )
                  (     0          0         -1      )

 cart.    s(15) = (  0.0000000 -1.0000000  0.0000000 )
                  (  1.0000000  0.0000000  0.0000000 )
                  (  0.0000000  0.0000000 -1.0000000 )


      isym = 16     inv.  90 deg rotation - cart. axis [0,0,1]   

 cryst.   s(16) = (     0         -1          0      )
                  (     1          0          0      )
                  (     0          0         -1      )

 cart.    s(16) = (  0.0000000  1.0000000  0.0000000 )
                  ( -1.0000000  0.0000000  0.0000000 )
                  (  0.0000000  0.0000000 -1.0000000 )


     point group D_4h(4/mmm)
     there are 10 classes
     the character table:

       E     2C4   C2    2C2'  2C2'' i     2S4   s_h   2s_v  2s_d 
A_1g   1.00  1.00  1.00  1.00  1.00  1.00  1.00  1.00  1.00  1.00
A_2g   1.00  1.00  1.00 -1.00 -1.00  1.00  1.00  1.00 -1.00 -1.00
B_1g   1.00 -1.00  1.00  1.00 -1.00  1.00 -1.00  1.00  1.00 -1.00
B_2g   1.00 -1.00  1.00 -1.00  1.00  1.00 -1.00  1.00 -1.00  1.00
E_g    2.00  0.00 -2.00  0.00  0.00  2.00  0.00 -2.00  0.00  0.00
A_1u   1.00  1.00  1.00  1.00  1.00 -1.00 -1.00 -1.00 -1.00 -1.00
A_2u   1.00  1.00  1.00 -1.00 -1.00 -1.00 -1.00 -1.00  1.00  1.00
B_1u   1.00 -1.00  1.00  1.00 -1.00 -1.00  1.00 -1.00 -1.00  1.00
B_2u   1.00 -1.00  1.00 -1.00  1.00 -1.00  1.00 -1.00  1.00 -1.00
E_u    2.00  0.00 -2.00  0.00  0.00 -2.00  0.00  2.00  0.00  0.00

     the symmetry operations in each class:
     E        1
     C2       2
     2C2'     3    4
     2C2''    5    6
     2C4      7    8
     i        9
     s_h     10
     2s_v    11   12
     2s_d    13   14
     2S4     15   16

   Cartesian axes

     site n.     atom                  positions (alat units)
         1           Ba  tau(   1) = (   0.0000000   0.0000000   0.0000000  )
         2           Ti  tau(   2) = (   0.5000000   0.5000000   0.5000000  )
         3           O   tau(   3) = (   0.0000000   0.5000000   0.5000000  )
         4           O   tau(   4) = (   0.5000000   0.5000000   0.0000000  )
         5           O   tau(   5) = (   0.5000000   0.0000000   0.5000000  )
         6           Ba  tau(   6) = (   0.0000000   0.0000000   1.0000000  )
         7           Ti  tau(   7) = (   0.5000000   0.5000000   1.5000000  )
         8           O   tau(   8) = (   0.0000000   0.5000000   1.5000000  )
         9           O   tau(   9) = (   0.5000000   0.5000000   1.0000000  )
        10           O   tau(  10) = (   0.5000000   0.0000000   1.5000000  )

   Crystallographic axes

     site n.     atom                  positions (cryst. coord.)
         1           Ba  tau(   1) = (  0.0000000  0.0000000  0.0000000  )
         2           Ti  tau(   2) = (  0.5000000  0.5000000  0.2500000  )
         3           O   tau(   3) = (  0.0000000  0.5000000  0.2500000  )
         4           O   tau(   4) = (  0.5000000  0.5000000  0.0000000  )
         5           O   tau(   5) = (  0.5000000  0.0000000  0.2500000  )
         6           Ba  tau(   6) = (  0.0000000  0.0000000  0.5000000  )
         7           Ti  tau(   7) = (  0.5000000  0.5000000  0.7500000  )
         8           O   tau(   8) = (  0.0000000  0.5000000  0.7500000  )
         9           O   tau(   9) = (  0.5000000  0.5000000  0.5000000  )
        10           O   tau(  10) = (  0.5000000  0.0000000  0.7500000  )

     number of k points=   177
                       cart. coord. in units 2pi/alat
        k(    1) = (   0.0000000   0.0000000   0.0000000), wk =   0.0001270
        k(    2) = (   0.0166667   0.0000000   0.0000000), wk =   0.0002539
        k(    3) = (   0.0333333   0.0000000   0.0000000), wk =   0.0003809
        k(    4) = (   0.0500000   0.0000000   0.0000000), wk =   0.0005078
        k(    5) = (   0.0666667   0.0000000   0.0000000), wk =   0.0006348
        k(    6) = (   0.0833333   0.0000000   0.0000000), wk =   0.0007618
        k(    7) = (   0.1000000   0.0000000   0.0000000), wk =   0.0008887
        k(    8) = (   0.1166667   0.0000000   0.0000000), wk =   0.0010157
        k(    9) = (   0.1333333   0.0000000   0.0000000), wk =   0.0011426
        k(   10) = (   0.1500000   0.0000000   0.0000000), wk =   0.0012696
        k(   11) = (   0.1666667   0.0000000   0.0000000), wk =   0.0013966
        k(   12) = (   0.1833333   0.0000000   0.0000000), wk =   0.0015235
        k(   13) = (   0.2000000   0.0000000   0.0000000), wk =   0.0016505
        k(   14) = (   0.2166667   0.0000000   0.0000000), wk =   0.0017774
        k(   15) = (   0.2333333   0.0000000   0.0000000), wk =   0.0019044
        k(   16) = (   0.2500000   0.0000000   0.0000000), wk =   0.0020314
        k(   17) = (   0.2666667   0.0000000   0.0000000), wk =   0.0021583
        k(   18) = (   0.2833333   0.0000000   0.0000000), wk =   0.0022853
        k(   19) = (   0.3000000   0.0000000   0.0000000), wk =   0.0024122
        k(   20) = (   0.3166667   0.0000000   0.0000000), wk =   0.0025392
        k(   21) = (   0.3333333   0.0000000   0.0000000), wk =   0.0026662
        k(   22) = (   0.3500000   0.0000000   0.0000000), wk =   0.0027931
        k(   23) = (   0.3666667   0.0000000   0.0000000), wk =   0.0029201
        k(   24) = (   0.3833333   0.0000000   0.0000000), wk =   0.0030470
        k(   25) = (   0.4000000   0.0000000   0.0000000), wk =   0.0031740
        k(   26) = (   0.4166667   0.0000000   0.0000000), wk =   0.0033010
        k(   27) = (   0.4333333   0.0000000   0.0000000), wk =   0.0034279
        k(   28) = (   0.4500000   0.0000000   0.0000000), wk =   0.0035549
        k(   29) = (   0.4666667   0.0000000   0.0000000), wk =   0.0036818
        k(   30) = (   0.4833333   0.0000000   0.0000000), wk =   0.0038088
        k(   31) = (   0.5000000   0.0000000   0.0000000), wk =   0.0039358
        k(   32) = (   0.5000000   0.0000000   0.0166667), wk =   0.0040627
        k(   33) = (   0.5000000   0.0000000   0.0333333), wk =   0.0041897
        k(   34) = (   0.5000000   0.0000000   0.0500000), wk =   0.0043166
        k(   35) = (   0.5000000   0.0000000   0.0666667), wk =   0.0044436
        k(   36) = (   0.5000000   0.0000000   0.0833333), wk =   0.0045706
        k(   37) = (   0.5000000   0.0000000   0.1000000), wk =   0.0046975
        k(   38) = (   0.5000000   0.0000000   0.1166667), wk =   0.0048245
        k(   39) = (   0.5000000   0.0000000   0.1333333), wk =   0.0049514
        k(   40) = (   0.5000000   0.0000000   0.1500000), wk =   0.0050784
        k(   41) = (   0.5000000   0.0000000   0.1666667), wk =   0.0052054
        k(   42) = (   0.5000000   0.0000000   0.1833333), wk =   0.0053323
        k(   43) = (   0.5000000   0.0000000   0.2000000), wk =   0.0054593
        k(   44) = (   0.5000000   0.0000000   0.2166667), wk =   0.0055862
        k(   45) = (   0.5000000   0.0000000   0.2333333), wk =   0.0057132
        k(   46) = (   0.5000000   0.0000000   0.2500000), wk =   0.0058402
        k(   47) = (   0.5000000   0.0000000  -0.2333333), wk =   0.0059671
        k(   48) = (   0.5000000   0.0000000  -0.2166667), wk =   0.0060941
        k(   49) = (   0.5000000   0.0000000  -0.2000000), wk =   0.0062210
        k(   50) = (   0.5000000   0.0000000  -0.1833333), wk =   0.0063480
        k(   51) = (   0.5000000   0.0000000  -0.1666667), wk =   0.0064750
        k(   52) = (   0.5000000   0.0000000  -0.1500000), wk =   0.0066019
        k(   53) = (   0.5000000   0.0000000  -0.1333333), wk =   0.0067289
        k(   54) = (   0.5000000   0.0000000  -0.1166667), wk =   0.0068558
        k(   55) = (   0.5000000   0.0000000  -0.1000000), wk =   0.0069828
        k(   56) = (   0.5000000   0.0000000  -0.0833333), wk =   0.0071098
        k(   57) = (   0.5000000   0.0000000  -0.0666667), wk =   0.0072367
        k(   58) = (   0.5000000   0.0000000  -0.0500000), wk =   0.0073637
        k(   59) = (   0.5000000   0.0000000  -0.0333333), wk =   0.0074906
        k(   60) = (   0.5000000   0.0000000  -0.0166667), wk =   0.0076176
        k(   61) = (   0.4833333   0.0000000  -0.0166667), wk =   0.0077446
        k(   62) = (   0.4666667   0.0000000  -0.0333333), wk =   0.0078715
        k(   63) = (   0.4500000   0.0000000  -0.0500000), wk =   0.0079985
        k(   64) = (   0.4333333   0.0000000  -0.0666667), wk =   0.0081254
        k(   65) = (   0.4166667   0.0000000  -0.0833333), wk =   0.0082524
        k(   66) = (   0.4000000   0.0000000  -0.1000000), wk =   0.0083794
        k(   67) = (   0.3833333   0.0000000  -0.1166667), wk =   0.0085063
        k(   68) = (   0.3666667   0.0000000  -0.1333333), wk =   0.0086333
        k(   69) = (   0.3500000   0.0000000  -0.1500000), wk =   0.0087602
        k(   70) = (   0.3333333   0.0000000  -0.1666667), wk =   0.0088872
        k(   71) = (   0.3166667   0.0000000  -0.1833333), wk =   0.0090142
        k(   72) = (   0.3000000   0.0000000  -0.2000000), wk =   0.0091411
        k(   73) = (   0.2833333   0.0000000  -0.2166667), wk =   0.0092681
        k(   74) = (   0.2666667   0.0000000  -0.2333333), wk =   0.0093950
        k(   75) = (   0.2500000   0.0000000   0.2500000), wk =   0.0095220
        k(   76) = (   0.2333333   0.0000000   0.2333333), wk =   0.0096490
        k(   77) = (   0.2166667   0.0000000   0.2166667), wk =   0.0097759
        k(   78) = (   0.2000000   0.0000000   0.2000000), wk =   0.0099029
        k(   79) = (   0.1833333   0.0000000   0.1833333), wk =   0.0100298
        k(   80) = (   0.1666667   0.0000000   0.1666667), wk =   0.0101568
        k(   81) = (   0.1500000   0.0000000   0.1500000), wk =   0.0102838
        k(   82) = (   0.1333333   0.0000000   0.1333333), wk =   0.0104107
        k(   83) = (   0.1166667   0.0000000   0.1166667), wk =   0.0105377
        k(   84) = (   0.1000000   0.0000000   0.1000000), wk =   0.0106646
        k(   85) = (   0.0833333   0.0000000   0.0833333), wk =   0.0107916
        k(   86) = (   0.0666667   0.0000000   0.0666667), wk =   0.0109186
        k(   87) = (   0.0500000   0.0000000   0.0500000), wk =   0.0110455
        k(   88) = (   0.0333333   0.0000000   0.0333333), wk =   0.0111725
        k(   89) = (   0.0166667   0.0000000   0.0166667), wk =   0.0112994
        k(   90) = (   0.0166667   0.0166667   0.0000000), wk =   0.0114264
        k(   91) = (   0.0333333   0.0333333   0.0000000), wk =   0.0115534
        k(   92) = (   0.0500000   0.0500000   0.0000000), wk =   0.0116803
        k(   93) = (   0.0666667   0.0666667   0.0000000), wk =   0.0118073
        k(   94) = (   0.0833333   0.0833333   0.0000000), wk =   0.0119342
        k(   95) = (   0.1000000   0.1000000   0.0000000), wk =   0.0120612
        k(   96) = (   0.1166667   0.1166667   0.0000000), wk =   0.0121882
        k(   97) = (   0.1333333   0.1333333   0.0000000), wk =   0.0123151
        k(   98) = (   0.1500000   0.1500000   0.0000000), wk =   0.0124421
        k(   99) = (   0.1666667   0.1666667   0.0000000), wk =   0.0125690
        k(  100) = (   0.1833333   0.1833333   0.0000000), wk =   0.0126960
        k(  101) = (   0.2000000   0.2000000   0.0000000), wk =   0.0128230
        k(  102) = (   0.2166667   0.2166667   0.0000000), wk =   0.0129499
        k(  103) = (   0.2333333   0.2333333   0.0000000), wk =   0.0130769
        k(  104) = (   0.2500000   0.2500000   0.0000000), wk =   0.0132038
        k(  105) = (   0.2666667   0.2666667   0.0000000), wk =   0.0133308
        k(  106) = (   0.2833333   0.2833333   0.0000000), wk =   0.0134578
        k(  107) = (   0.3000000   0.3000000   0.0000000), wk =   0.0135847
        k(  108) = (   0.3166667   0.3166667   0.0000000), wk =   0.0137117
        k(  109) = (   0.3333333   0.3333333   0.0000000), wk =   0.0138386
        k(  110) = (   0.3500000   0.3500000   0.0000000), wk =   0.0139656
        k(  111) = (   0.3666667   0.3666667   0.0000000), wk =   0.0140926
        k(  112) = (   0.3833333   0.3833333   0.0000000), wk =   0.0142195
        k(  113) = (   0.4000000   0.4000000   0.0000000), wk =   0.0143465
        k(  114) = (   0.4166667   0.4166667   0.0000000), wk =   0.0144734
        k(  115) = (   0.4333333   0.4333333   0.0000000), wk =   0.0146004
        k(  116) = (   0.4500000   0.4500000   0.0000000), wk =   0.0147274
        k(  117) = (   0.4666667   0.4666667   0.0000000), wk =   0.0148543
        k(  118) = (   0.4833333   0.4833333   0.0000000), wk =   0.0149813
        k(  119) = (   0.5000000   0.5000000   0.0000000), wk =   0.0151082
        k(  120) = (   0.5000000   0.5000000   0.0166667), wk =   0.0152352
        k(  121) = (   0.5000000   0.5000000   0.0333333), wk =   0.0153622
        k(  122) = (   0.5000000   0.5000000   0.0500000), wk =   0.0154891
        k(  123) = (   0.5000000   0.5000000   0.0666667), wk =   0.0156161
        k(  124) = (   0.5000000   0.5000000   0.0833333), wk =   0.0157430
        k(  125) = (   0.5000000   0.5000000   0.1000000), wk =   0.0158700
        k(  126) = (   0.5000000   0.5000000   0.1166667), wk =   0.0159970
        k(  127) = (   0.5000000   0.5000000   0.1333333), wk =   0.0161239
        k(  128) = (   0.5000000   0.5000000   0.1500000), wk =   0.0162509
        k(  129) = (   0.5000000   0.5000000   0.1666667), wk =   0.0163778
        k(  130) = (   0.5000000   0.5000000   0.1833333), wk =   0.0165048
        k(  131) = (   0.5000000   0.5000000   0.2000000), wk =   0.0166318
        k(  132) = (   0.5000000   0.5000000   0.2166667), wk =   0.0167587
        k(  133) = (   0.5000000   0.5000000   0.2333333), wk =   0.0168857
        k(  134) = (   0.5000000   0.5000000   0.2500000), wk =   0.0170126
        k(  135) = (   0.5000000   0.5000000  -0.2333333), wk =   0.0171396
        k(  136) = (   0.5000000   0.5000000  -0.2166667), wk =   0.0172666
        k(  137) = (   0.5000000   0.5000000  -0.2000000), wk =   0.0173935
        k(  138) = (   0.5000000   0.5000000  -0.1833333), wk =   0.0175205
        k(  139) = (   0.5000000   0.5000000  -0.1666667), wk =   0.0176474
        k(  140) = (   0.5000000   0.5000000  -0.1500000), wk =   0.0177744
        k(  141) = (   0.5000000   0.5000000  -0.1333333), wk =   0.0179014
        k(  142) = (   0.5000000   0.5000000  -0.1166667), wk =   0.0180283
        k(  143) = (   0.5000000   0.5000000  -0.1000000), wk =   0.0181553
        k(  144) = (   0.5000000   0.5000000  -0.0833333), wk =   0.0182822
        k(  145) = (   0.5000000   0.5000000  -0.0666667), wk =   0.0184092
        k(  146) = (   0.5000000   0.5000000  -0.0500000), wk =   0.0185362
        k(  147) = (   0.5000000   0.5000000  -0.0333333), wk =   0.0186631
        k(  148) = (   0.5000000   0.5000000  -0.0166667), wk =   0.0187901
        k(  149) = (   0.0000000   0.0000000  -0.0166667), wk =   0.0189170
        k(  150) = (   0.0000000   0.0000000  -0.0333333), wk =   0.0190440
        k(  151) = (   0.0000000   0.0000000  -0.0500000), wk =   0.0191710
        k(  152) = (   0.0000000   0.0000000  -0.0666667), wk =   0.0192979
        k(  153) = (   0.0000000   0.0000000  -0.0833333), wk =   0.0194249
        k(  154) = (   0.0000000   0.0000000  -0.1000000), wk =   0.0195518
        k(  155) = (   0.0000000   0.0000000  -0.1166667), wk =   0.0196788
        k(  156) = (   0.0000000   0.0000000  -0.1333333), wk =   0.0198058
        k(  157) = (   0.0000000   0.0000000  -0.1500000), wk =   0.0199327
        k(  158) = (   0.0000000   0.0000000  -0.1666667), wk =   0.0200597
        k(  159) = (   0.0000000   0.0000000  -0.1833333), wk =   0.0201866
        k(  160) = (   0.0000000   0.0000000  -0.2000000), wk =   0.0203136
        k(  161) = (   0.0000000   0.0000000  -0.2166667), wk =   0.0204406
        k(  162) = (   0.0000000   0.0000000  -0.2333333), wk =   0.0205675
        k(  163) = (   0.0000000   0.0000000   0.2500000), wk =   0.0206945
        k(  164) = (   0.0000000   0.0000000   0.2333333), wk =   0.0208214
        k(  165) = (   0.0000000   0.0000000   0.2166667), wk =   0.0209484
        k(  166) = (   0.0000000   0.0000000   0.2000000), wk =   0.0210754
        k(  167) = (   0.0000000   0.0000000   0.1833333), wk =   0.0212023
        k(  168) = (   0.0000000   0.0000000   0.1666667), wk =   0.0213293
        k(  169) = (   0.0000000   0.0000000   0.1500000), wk =   0.0214562
        k(  170) = (   0.0000000   0.0000000   0.1333333), wk =   0.0215832
        k(  171) = (   0.0000000   0.0000000   0.1166667), wk =   0.0217102
        k(  172) = (   0.0000000   0.0000000   0.1000000), wk =   0.0218371
        k(  173) = (   0.0000000   0.0000000   0.0833333), wk =   0.0219641
        k(  174) = (   0.0000000   0.0000000   0.0666667), wk =   0.0220910
        k(  175) = (   0.0000000   0.0000000   0.0500000), wk =   0.0222180
        k(  176) = (   0.0000000   0.0000000   0.0333333), wk =   0.0223450
        k(  177) = (   0.0000000   0.0000000   0.0166667), wk =   0.0224719

                       cryst. coord.
        k(    1) = (   0.0000000   0.0000000   0.0000000), wk =   0.0001270
        k(    2) = (   0.0166667   0.0000000   0.0000000), wk =   0.0002539
        k(    3) = (   0.0333333   0.0000000   0.0000000), wk =   0.0003809
        k(    4) = (   0.0500000   0.0000000   0.0000000), wk =   0.0005078
        k(    5) = (   0.0666667   0.0000000   0.0000000), wk =   0.0006348
        k(    6) = (   0.0833333   0.0000000   0.0000000), wk =   0.0007618
        k(    7) = (   0.1000000   0.0000000   0.0000000), wk =   0.0008887
        k(    8) = (   0.1166667   0.0000000   0.0000000), wk =   0.0010157
        k(    9) = (   0.1333333   0.0000000   0.0000000), wk =   0.0011426
        k(   10) = (   0.1500000   0.0000000   0.0000000), wk =   0.0012696
        k(   11) = (   0.1666667   0.0000000   0.0000000), wk =   0.0013966
        k(   12) = (   0.1833333   0.0000000   0.0000000), wk =   0.0015235
        k(   13) = (   0.2000000   0.0000000   0.0000000), wk =   0.0016505
        k(   14) = (   0.2166667   0.0000000   0.0000000), wk =   0.0017774
        k(   15) = (   0.2333333   0.0000000   0.0000000), wk =   0.0019044
        k(   16) = (   0.2500000   0.0000000   0.0000000), wk =   0.0020314
        k(   17) = (   0.2666667   0.0000000   0.0000000), wk =   0.0021583
        k(   18) = (   0.2833333   0.0000000   0.0000000), wk =   0.0022853
        k(   19) = (   0.3000000   0.0000000   0.0000000), wk =   0.0024122
        k(   20) = (   0.3166667   0.0000000   0.0000000), wk =   0.0025392
        k(   21) = (   0.3333333   0.0000000   0.0000000), wk =   0.0026662
        k(   22) = (   0.3500000   0.0000000   0.0000000), wk =   0.0027931
        k(   23) = (   0.3666667   0.0000000   0.0000000), wk =   0.0029201
        k(   24) = (   0.3833333   0.0000000   0.0000000), wk =   0.0030470
        k(   25) = (   0.4000000   0.0000000   0.0000000), wk =   0.0031740
        k(   26) = (   0.4166667   0.0000000   0.0000000), wk =   0.0033010
        k(   27) = (   0.4333333   0.0000000   0.0000000), wk =   0.0034279
        k(   28) = (   0.4500000   0.0000000   0.0000000), wk =   0.0035549
        k(   29) = (   0.4666667   0.0000000   0.0000000), wk =   0.0036818
        k(   30) = (   0.4833333   0.0000000   0.0000000), wk =   0.0038088
        k(   31) = (   0.5000000   0.0000000   0.0000000), wk =   0.0039358
        k(   32) = (   0.5000000   0.0000000   0.0333334), wk =   0.0040627
        k(   33) = (   0.5000000   0.0000000   0.0666666), wk =   0.0041897
        k(   34) = (   0.5000000   0.0000000   0.1000000), wk =   0.0043166
        k(   35) = (   0.5000000   0.0000000   0.1333334), wk =   0.0044436
        k(   36) = (   0.5000000   0.0000000   0.1666666), wk =   0.0045706
        k(   37) = (   0.5000000   0.0000000   0.2000000), wk =   0.0046975
        k(   38) = (   0.5000000   0.0000000   0.2333334), wk =   0.0048245
        k(   39) = (   0.5000000   0.0000000   0.2666666), wk =   0.0049514
        k(   40) = (   0.5000000   0.0000000   0.3000000), wk =   0.0050784
        k(   41) = (   0.5000000   0.0000000   0.3333334), wk =   0.0052054
        k(   42) = (   0.5000000   0.0000000   0.3666666), wk =   0.0053323
        k(   43) = (   0.5000000   0.0000000   0.4000000), wk =   0.0054593
        k(   44) = (   0.5000000   0.0000000   0.4333334), wk =   0.0055862
        k(   45) = (   0.5000000   0.0000000   0.4666666), wk =   0.0057132
        k(   46) = (   0.5000000   0.0000000   0.5000000), wk =   0.0058402
        k(   47) = (   0.5000000   0.0000000  -0.4666666), wk =   0.0059671
        k(   48) = (   0.5000000   0.0000000  -0.4333334), wk =   0.0060941
        k(   49) = (   0.5000000   0.0000000  -0.4000000), wk =   0.0062210
        k(   50) = (   0.5000000   0.0000000  -0.3666666), wk =   0.0063480
        k(   51) = (   0.5000000   0.0000000  -0.3333334), wk =   0.0064750
        k(   52) = (   0.5000000   0.0000000  -0.3000000), wk =   0.0066019
        k(   53) = (   0.5000000   0.0000000  -0.2666666), wk =   0.0067289
        k(   54) = (   0.5000000   0.0000000  -0.2333334), wk =   0.0068558
        k(   55) = (   0.5000000   0.0000000  -0.2000000), wk =   0.0069828
        k(   56) = (   0.5000000   0.0000000  -0.1666666), wk =   0.0071098
        k(   57) = (   0.5000000   0.0000000  -0.1333334), wk =   0.0072367
        k(   58) = (   0.5000000   0.0000000  -0.1000000), wk =   0.0073637
        k(   59) = (   0.5000000   0.0000000  -0.0666666), wk =   0.0074906
        k(   60) = (   0.5000000   0.0000000  -0.0333334), wk =   0.0076176
        k(   61) = (   0.4833333   0.0000000  -0.0333334), wk =   0.0077446
        k(   62) = (   0.4666667   0.0000000  -0.0666666), wk =   0.0078715
        k(   63) = (   0.4500000   0.0000000  -0.1000000), wk =   0.0079985
        k(   64) = (   0.4333333   0.0000000  -0.1333334), wk =   0.0081254
        k(   65) = (   0.4166667   0.0000000  -0.1666666), wk =   0.0082524
        k(   66) = (   0.4000000   0.0000000  -0.2000000), wk =   0.0083794
        k(   67) = (   0.3833333   0.0000000  -0.2333334), wk =   0.0085063
        k(   68) = (   0.3666667   0.0000000  -0.2666666), wk =   0.0086333
        k(   69) = (   0.3500000   0.0000000  -0.3000000), wk =   0.0087602
        k(   70) = (   0.3333333   0.0000000  -0.3333334), wk =   0.0088872
        k(   71) = (   0.3166667   0.0000000  -0.3666666), wk =   0.0090142
        k(   72) = (   0.3000000   0.0000000  -0.4000000), wk =   0.0091411
        k(   73) = (   0.2833333   0.0000000  -0.4333334), wk =   0.0092681
        k(   74) = (   0.2666667   0.0000000  -0.4666666), wk =   0.0093950
        k(   75) = (   0.2500000   0.0000000   0.5000000), wk =   0.0095220
        k(   76) = (   0.2333333   0.0000000   0.4666666), wk =   0.0096490
        k(   77) = (   0.2166667   0.0000000   0.4333334), wk =   0.0097759
        k(   78) = (   0.2000000   0.0000000   0.4000000), wk =   0.0099029
        k(   79) = (   0.1833333   0.0000000   0.3666666), wk =   0.0100298
        k(   80) = (   0.1666667   0.0000000   0.3333334), wk =   0.0101568
        k(   81) = (   0.1500000   0.0000000   0.3000000), wk =   0.0102838
        k(   82) = (   0.1333333   0.0000000   0.2666666), wk =   0.0104107
        k(   83) = (   0.1166667   0.0000000   0.2333334), wk =   0.0105377
        k(   84) = (   0.1000000   0.0000000   0.2000000), wk =   0.0106646
        k(   85) = (   0.0833333   0.0000000   0.1666666), wk =   0.0107916
        k(   86) = (   0.0666667   0.0000000   0.1333334), wk =   0.0109186
        k(   87) = (   0.0500000   0.0000000   0.1000000), wk =   0.0110455
        k(   88) = (   0.0333333   0.0000000   0.0666666), wk =   0.0111725
        k(   89) = (   0.0166667   0.0000000   0.0333334), wk =   0.0112994
        k(   90) = (   0.0166667   0.0166667   0.0000000), wk =   0.0114264
        k(   91) = (   0.0333333   0.0333333   0.0000000), wk =   0.0115534
        k(   92) = (   0.0500000   0.0500000   0.0000000), wk =   0.0116803
        k(   93) = (   0.0666667   0.0666667   0.0000000), wk =   0.0118073
        k(   94) = (   0.0833333   0.0833333   0.0000000), wk =   0.0119342
        k(   95) = (   0.1000000   0.1000000   0.0000000), wk =   0.0120612
        k(   96) = (   0.1166667   0.1166667   0.0000000), wk =   0.0121882
        k(   97) = (   0.1333333   0.1333333   0.0000000), wk =   0.0123151
        k(   98) = (   0.1500000   0.1500000   0.0000000), wk =   0.0124421
        k(   99) = (   0.1666667   0.1666667   0.0000000), wk =   0.0125690
        k(  100) = (   0.1833333   0.1833333   0.0000000), wk =   0.0126960
        k(  101) = (   0.2000000   0.2000000   0.0000000), wk =   0.0128230
        k(  102) = (   0.2166667   0.2166667   0.0000000), wk =   0.0129499
        k(  103) = (   0.2333333   0.2333333   0.0000000), wk =   0.0130769
        k(  104) = (   0.2500000   0.2500000   0.0000000), wk =   0.0132038
        k(  105) = (   0.2666667   0.2666667   0.0000000), wk =   0.0133308
        k(  106) = (   0.2833333   0.2833333   0.0000000), wk =   0.0134578
        k(  107) = (   0.3000000   0.3000000   0.0000000), wk =   0.0135847
        k(  108) = (   0.3166667   0.3166667   0.0000000), wk =   0.0137117
        k(  109) = (   0.3333333   0.3333333   0.0000000), wk =   0.0138386
        k(  110) = (   0.3500000   0.3500000   0.0000000), wk =   0.0139656
        k(  111) = (   0.3666667   0.3666667   0.0000000), wk =   0.0140926
        k(  112) = (   0.3833333   0.3833333   0.0000000), wk =   0.0142195
        k(  113) = (   0.4000000   0.4000000   0.0000000), wk =   0.0143465
        k(  114) = (   0.4166667   0.4166667   0.0000000), wk =   0.0144734
        k(  115) = (   0.4333333   0.4333333   0.0000000), wk =   0.0146004
        k(  116) = (   0.4500000   0.4500000   0.0000000), wk =   0.0147274
        k(  117) = (   0.4666667   0.4666667   0.0000000), wk =   0.0148543
        k(  118) = (   0.4833333   0.4833333   0.0000000), wk =   0.0149813
        k(  119) = (   0.5000000   0.5000000   0.0000000), wk =   0.0151082
        k(  120) = (   0.5000000   0.5000000   0.0333334), wk =   0.0152352
        k(  121) = (   0.5000000   0.5000000   0.0666666), wk =   0.0153622
        k(  122) = (   0.5000000   0.5000000   0.1000000), wk =   0.0154891
        k(  123) = (   0.5000000   0.5000000   0.1333334), wk =   0.0156161
        k(  124) = (   0.5000000   0.5000000   0.1666666), wk =   0.0157430
        k(  125) = (   0.5000000   0.5000000   0.2000000), wk =   0.0158700
        k(  126) = (   0.5000000   0.5000000   0.2333334), wk =   0.0159970
        k(  127) = (   0.5000000   0.5000000   0.2666666), wk =   0.0161239
        k(  128) = (   0.5000000   0.5000000   0.3000000), wk =   0.0162509
        k(  129) = (   0.5000000   0.5000000   0.3333334), wk =   0.0163778
        k(  130) = (   0.5000000   0.5000000   0.3666666), wk =   0.0165048
        k(  131) = (   0.5000000   0.5000000   0.4000000), wk =   0.0166318
        k(  132) = (   0.5000000   0.5000000   0.4333334), wk =   0.0167587
        k(  133) = (   0.5000000   0.5000000   0.4666666), wk =   0.0168857
        k(  134) = (   0.5000000   0.5000000   0.5000000), wk =   0.0170126
        k(  135) = (   0.5000000   0.5000000  -0.4666666), wk =   0.0171396
        k(  136) = (   0.5000000   0.5000000  -0.4333334), wk =   0.0172666
        k(  137) = (   0.5000000   0.5000000  -0.4000000), wk =   0.0173935
        k(  138) = (   0.5000000   0.5000000  -0.3666666), wk =   0.0175205
        k(  139) = (   0.5000000   0.5000000  -0.3333334), wk =   0.0176474
        k(  140) = (   0.5000000   0.5000000  -0.3000000), wk =   0.0177744
        k(  141) = (   0.5000000   0.5000000  -0.2666666), wk =   0.0179014
        k(  142) = (   0.5000000   0.5000000  -0.2333334), wk =   0.0180283
        k(  143) = (   0.5000000   0.5000000  -0.2000000), wk =   0.0181553
        k(  144) = (   0.5000000   0.5000000  -0.1666666), wk =   0.0182822
        k(  145) = (   0.5000000   0.5000000  -0.1333334), wk =   0.0184092
        k(  146) = (   0.5000000   0.5000000  -0.1000000), wk =   0.0185362
        k(  147) = (   0.5000000   0.5000000  -0.0666666), wk =   0.0186631
        k(  148) = (   0.5000000   0.5000000  -0.0333334), wk =   0.0187901
        k(  149) = (   0.0000000   0.0000000  -0.0333334), wk =   0.0189170
        k(  150) = (   0.0000000   0.0000000  -0.0666666), wk =   0.0190440
        k(  151) = (   0.0000000   0.0000000  -0.1000000), wk =   0.0191710
        k(  152) = (   0.0000000   0.0000000  -0.1333334), wk =   0.0192979
        k(  153) = (   0.0000000   0.0000000  -0.1666666), wk =   0.0194249
        k(  154) = (   0.0000000   0.0000000  -0.2000000), wk =   0.0195518
        k(  155) = (   0.0000000   0.0000000  -0.2333334), wk =   0.0196788
        k(  156) = (   0.0000000   0.0000000  -0.2666666), wk =   0.0198058
        k(  157) = (   0.0000000   0.0000000  -0.3000000), wk =   0.0199327
        k(  158) = (   0.0000000   0.0000000  -0.3333334), wk =   0.0200597
        k(  159) = (   0.0000000   0.0000000  -0.3666666), wk =   0.0201866
        k(  160) = (   0.0000000   0.0000000  -0.4000000), wk =   0.0203136
        k(  161) = (   0.0000000   0.0000000  -0.4333334), wk =   0.0204406
        k(  162) = (   0.0000000   0.0000000  -0.4666666), wk =   0.0205675
        k(  163) = (   0.0000000   0.0000000   0.5000000), wk =   0.0206945
        k(  164) = (   0.0000000   0.0000000   0.4666666), wk =   0.0208214
        k(  165) = (   0.0000000   0.0000000   0.4333334), wk =   0.0209484
        k(  166) = (   0.0000000   0.0000000   0.4000000), wk =   0.0210754
        k(  167) = (   0.0000000   0.0000000   0.3666666), wk =   0.0212023
        k(  168) = (   0.0000000   0.0000000   0.3333334), wk =   0.0213293
        k(  169) = (   0.0000000   0.0000000   0.3000000), wk =   0.0214562
        k(  170) = (   0.0000000   0.0000000   0.2666666), wk =   0.0215832
        k(  171) = (   0.0000000   0.0000000   0.2333334), wk =   0.0217102
        k(  172) = (   0.0000000   0.0000000   0.2000000), wk =   0.0218371
        k(  173) = (   0.0000000   0.0000000   0.1666666), wk =   0.0219641
        k(  174) = (   0.0000000   0.0000000   0.1333334), wk =   0.0220910
        k(  175) = (   0.0000000   0.0000000   0.1000000), wk =   0.0222180
        k(  176) = (   0.0000000   0.0000000   0.0666666), wk =   0.0223450
        k(  177) = (   0.0000000   0.0000000   0.0333334), wk =   0.0224719

     Dense  grid:   111459 G-vectors     FFT dimensions: (  48,  48,  96)

     Smooth grid:    28091 G-vectors     FFT dimensions: (  30,  30,  60)

     Largest allocated arrays     est. size (Mb)     dimensions
        Kohn-Sham Wavefunctions         2.17 Mb     (   3562,   40)
        NL pseudopotentials             6.52 Mb     (   3562,  120)
        Each V/rho on FFT grid          3.38 Mb     ( 221184)
        Each G-vector array             0.85 Mb     ( 111459)
        G-vector shells                 0.01 Mb     (   1032)
     Largest temporary arrays     est. size (Mb)     dimensions
        Auxiliary wavefunctions         8.70 Mb     (   3562,  160)
        Each subspace H/S matrix        0.39 Mb     ( 160, 160)
        Each <psi_i|beta_j> matrix      0.07 Mb     (    120,   40)

     The potential is recalculated from file :
     ./tmp/batio3.save/charge-density.dat

     Starting wfc are   54 randomized atomic wfcs

     total cpu time spent up to now is       15.4 secs

     per-process dynamical memory:    66.0 Mb

     Band Structure Calculation
     Davidson diagonalization with overlap

     Computing kpt #:     1
     total cpu time spent up to now is       42.7 secs

     Computing kpt #:     2
     total cpu time spent up to now is       63.6 secs

     Computing kpt #:     3
     total cpu time spent up to now is       86.2 secs

     Computing kpt #:     4
     total cpu time spent up to now is      109.5 secs

     Computing kpt #:     5
     total cpu time spent up to now is      126.2 secs

     Computing kpt #:     6
     total cpu time spent up to now is      147.4 secs

     Computing kpt #:     7
     total cpu time spent up to now is      171.5 secs

     Computing kpt #:     8
     total cpu time spent up to now is      198.7 secs

     Computing kpt #:     9
     total cpu time spent up to now is      221.2 secs

     Computing kpt #:    10
     total cpu time spent up to now is      240.9 secs

     Computing kpt #:    11
     total cpu time spent up to now is      261.1 secs

     Computing kpt #:    12
     total cpu time spent up to now is      282.6 secs

     Computing kpt #:    13
     total cpu time spent up to now is      305.2 secs

     Computing kpt #:    14
     total cpu time spent up to now is      328.1 secs

     Computing kpt #:    15
     total cpu time spent up to now is      347.8 secs

     Computing kpt #:    16
     total cpu time spent up to now is      371.1 secs

     Computing kpt #:    17
     total cpu time spent up to now is      397.3 secs

     Computing kpt #:    18
     total cpu time spent up to now is      423.5 secs

     Computing kpt #:    19
     total cpu time spent up to now is      446.7 secs

     Computing kpt #:    20
     total cpu time spent up to now is      470.3 secs

     Computing kpt #:    21
     total cpu time spent up to now is      493.9 secs

     Computing kpt #:    22
     total cpu time spent up to now is      516.5 secs

     Computing kpt #:    23
     total cpu time spent up to now is      543.4 secs

     Computing kpt #:    24
     total cpu time spent up to now is      568.4 secs

     Computing kpt #:    25
     total cpu time spent up to now is      595.7 secs

     Computing kpt #:    26
     total cpu time spent up to now is      619.9 secs

     Computing kpt #:    27
     total cpu time spent up to now is      644.8 secs

     Computing kpt #:    28
     total cpu time spent up to now is      667.2 secs

     Computing kpt #:    29
     total cpu time spent up to now is      690.4 secs

     Computing kpt #:    30
     total cpu time spent up to now is      715.9 secs

     Computing kpt #:    31
     total cpu time spent up to now is      739.7 secs

     Computing kpt #:    32
     total cpu time spent up to now is      765.8 secs

     Computing kpt #:    33
     total cpu time spent up to now is      791.4 secs

     Computing kpt #:    34
     total cpu time spent up to now is      818.5 secs

     Computing kpt #:    35
     total cpu time spent up to now is      844.3 secs

     Computing kpt #:    36
     total cpu time spent up to now is      869.1 secs

     Computing kpt #:    37
     total cpu time spent up to now is      892.9 secs

     Computing kpt #:    38
     total cpu time spent up to now is      918.1 secs

     Computing kpt #:    39
     total cpu time spent up to now is      942.3 secs

     Computing kpt #:    40
     total cpu time spent up to now is      966.7 secs

     Computing kpt #:    41
     total cpu time spent up to now is      992.6 secs

     Computing kpt #:    42
     total cpu time spent up to now is     1017.4 secs

     Computing kpt #:    43
     total cpu time spent up to now is     1040.5 secs

     Computing kpt #:    44
     total cpu time spent up to now is     1063.7 secs

     Computing kpt #:    45
     total cpu time spent up to now is     1085.2 secs

     Computing kpt #:    46
     total cpu time spent up to now is     1109.4 secs

     Computing kpt #:    47
     total cpu time spent up to now is     1132.3 secs

     Computing kpt #:    48
     total cpu time spent up to now is     1156.4 secs

     Computing kpt #:    49
     total cpu time spent up to now is     1180.2 secs

     Computing kpt #:    50
     total cpu time spent up to now is     1204.0 secs

     Computing kpt #:    51
     total cpu time spent up to now is     1228.1 secs

     Computing kpt #:    52
     total cpu time spent up to now is     1250.9 secs

     Computing kpt #:    53
     total cpu time spent up to now is     1276.4 secs

     Computing kpt #:    54
     total cpu time spent up to now is     1300.5 secs

     Computing kpt #:    55
     total cpu time spent up to now is     1324.5 secs

     Computing kpt #:    56
     total cpu time spent up to now is     1340.8 secs

     Computing kpt #:    57
     total cpu time spent up to now is     1352.5 secs

     Computing kpt #:    58
     total cpu time spent up to now is     1369.0 secs

     Computing kpt #:    59
     total cpu time spent up to now is     1381.4 secs

     Computing kpt #:    60
     total cpu time spent up to now is     1398.6 secs

     Computing kpt #:    61
     total cpu time spent up to now is     1417.5 secs

     Computing kpt #:    62
     total cpu time spent up to now is     1435.4 secs

     Computing kpt #:    63
     total cpu time spent up to now is     1452.1 secs

     Computing kpt #:    64
     total cpu time spent up to now is     1468.5 secs

     Computing kpt #:    65
     total cpu time spent up to now is     1488.0 secs

     Computing kpt #:    66
     total cpu time spent up to now is     1508.5 secs

     Computing kpt #:    67
     total cpu time spent up to now is     1520.7 secs

     Computing kpt #:    68
     total cpu time spent up to now is     1540.3 secs

     Computing kpt #:    69
     total cpu time spent up to now is     1564.7 secs

     Computing kpt #:    70
     total cpu time spent up to now is     1588.4 secs

     Computing kpt #:    71
     total cpu time spent up to now is     1613.7 secs

     Computing kpt #:    72
     total cpu time spent up to now is     1638.4 secs

     Computing kpt #:    73
     total cpu time spent up to now is     1663.1 secs

     Computing kpt #:    74
     total cpu time spent up to now is     1685.6 secs

     Computing kpt #:    75
     total cpu time spent up to now is     1710.3 secs

     Computing kpt #:    76
     total cpu time spent up to now is     1734.4 secs

     Computing kpt #:    77
     total cpu time spent up to now is     1759.1 secs

     Computing kpt #:    78
     total cpu time spent up to now is     1784.1 secs

     Computing kpt #:    79
     total cpu time spent up to now is     1810.9 secs

     Computing kpt #:    80
     total cpu time spent up to now is     1830.3 secs

     Computing kpt #:    81
     total cpu time spent up to now is     1846.2 secs

     Computing kpt #:    82
     total cpu time spent up to now is     1864.7 secs

     Computing kpt #:    83
     total cpu time spent up to now is     1878.2 secs

     Computing kpt #:    84
     total cpu time spent up to now is     1897.0 secs

     Computing kpt #:    85
     total cpu time spent up to now is     1922.2 secs

     Computing kpt #:    86
     total cpu time spent up to now is     1940.7 secs

     Computing kpt #:    87
     total cpu time spent up to now is     1956.1 secs

     Computing kpt #:    88
     total cpu time spent up to now is     1976.2 secs

     Computing kpt #:    89
     total cpu time spent up to now is     1997.1 secs

     Computing kpt #:    90
     total cpu time spent up to now is     2014.7 secs

     Computing kpt #:    91
     total cpu time spent up to now is     2031.1 secs

     Computing kpt #:    92
     total cpu time spent up to now is     2051.5 secs

     Computing kpt #:    93
     total cpu time spent up to now is     2072.5 secs

     Computing kpt #:    94
     total cpu time spent up to now is     2091.6 secs

     Computing kpt #:    95
     total cpu time spent up to now is     2111.2 secs

     Computing kpt #:    96
     total cpu time spent up to now is     2129.7 secs

     Computing kpt #:    97
     total cpu time spent up to now is     2147.9 secs

     Computing kpt #:    98
     total cpu time spent up to now is     2166.5 secs

     Computing kpt #:    99
     total cpu time spent up to now is     2187.1 secs

     Computing kpt #:   100
     total cpu time spent up to now is     2211.9 secs

     Computing kpt #:   101
     total cpu time spent up to now is     2234.1 secs

     Computing kpt #:   102
     total cpu time spent up to now is     2247.5 secs

     Computing kpt #:   103
     total cpu time spent up to now is     2259.2 secs

     Computing kpt #:   104
     total cpu time spent up to now is     2279.2 secs

     Computing kpt #:   105
     total cpu time spent up to now is     2298.4 secs

     Computing kpt #:   106
     total cpu time spent up to now is     2319.7 secs

     Computing kpt #:   107
     total cpu time spent up to now is     2344.9 secs

     Computing kpt #:   108
     total cpu time spent up to now is     2367.9 secs

     Computing kpt #:   109
     total cpu time spent up to now is     2388.9 secs

     Computing kpt #:   110
     total cpu time spent up to now is     2410.8 secs

     Computing kpt #:   111
     total cpu time spent up to now is     2431.1 secs

     Computing kpt #:   112
     total cpu time spent up to now is     2448.8 secs

     Computing kpt #:   113
     total cpu time spent up to now is     2466.7 secs

     Computing kpt #:   114
     total cpu time spent up to now is     2485.4 secs

     Computing kpt #:   115
     total cpu time spent up to now is     2506.2 secs

     Computing kpt #:   116
     total cpu time spent up to now is     2526.0 secs

     Computing kpt #:   117
     total cpu time spent up to now is     2544.5 secs

     Computing kpt #:   118
     total cpu time spent up to now is     2564.2 secs

     Computing kpt #:   119
     total cpu time spent up to now is     2584.4 secs

     Computing kpt #:   120
     total cpu time spent up to now is     2607.7 secs

     Computing kpt #:   121
     total cpu time spent up to now is     2630.6 secs

     Computing kpt #:   122
     total cpu time spent up to now is     2653.6 secs

     Computing kpt #:   123
     total cpu time spent up to now is     2676.5 secs

     Computing kpt #:   124
     total cpu time spent up to now is     2700.7 secs

     Computing kpt #:   125
     total cpu time spent up to now is     2724.6 secs

     Computing kpt #:   126
     total cpu time spent up to now is     2747.7 secs

     Computing kpt #:   127
     total cpu time spent up to now is     2771.1 secs

     Computing kpt #:   128
     total cpu time spent up to now is     2794.9 secs

     Computing kpt #:   129
     total cpu time spent up to now is     2818.2 secs

     Computing kpt #:   130
     total cpu time spent up to now is     2841.8 secs

     Computing kpt #:   131
     total cpu time spent up to now is     2861.1 secs

     Computing kpt #:   132
     total cpu time spent up to now is     2879.6 secs

     Computing kpt #:   133
     total cpu time spent up to now is     2898.6 secs

     Computing kpt #:   134
     total cpu time spent up to now is     2917.2 secs

     Computing kpt #:   135
     total cpu time spent up to now is     2938.2 secs

     Computing kpt #:   136
     total cpu time spent up to now is     2960.1 secs

     Computing kpt #:   137
     total cpu time spent up to now is     2983.8 secs

     Computing kpt #:   138
     total cpu time spent up to now is     3006.9 secs

     Computing kpt #:   139
     total cpu time spent up to now is     3028.4 secs

     Computing kpt #:   140
     total cpu time spent up to now is     3051.9 secs

     Computing kpt #:   141
     total cpu time spent up to now is     3076.0 secs

     Computing kpt #:   142
     total cpu time spent up to now is     3099.4 secs

     Computing kpt #:   143
     total cpu time spent up to now is     3123.9 secs

     Computing kpt #:   144
     total cpu time spent up to now is     3148.3 secs

     Computing kpt #:   145
     total cpu time spent up to now is     3172.8 secs

     Computing kpt #:   146
     total cpu time spent up to now is     3197.5 secs

     Computing kpt #:   147
     total cpu time spent up to now is     3219.9 secs

     Computing kpt #:   148
     total cpu time spent up to now is     3243.3 secs

     Computing kpt #:   149
     total cpu time spent up to now is     3268.9 secs

     Computing kpt #:   150
     total cpu time spent up to now is     9049.3 secs

     Computing kpt #:   151
     total cpu time spent up to now is     9073.8 secs

     Computing kpt #:   152
     total cpu time spent up to now is     9098.4 secs

     Computing kpt #:   153
     total cpu time spent up to now is     9117.2 secs

     Computing kpt #:   154
     total cpu time spent up to now is     9136.2 secs

     Computing kpt #:   155
     total cpu time spent up to now is     9151.6 secs

     Computing kpt #:   156
     total cpu time spent up to now is     9164.8 secs

     Computing kpt #:   157
     total cpu time spent up to now is     9178.0 secs

     Computing kpt #:   158
     total cpu time spent up to now is     9191.0 secs

     Computing kpt #:   159
     total cpu time spent up to now is     9204.1 secs

     Computing kpt #:   160
     total cpu time spent up to now is     9217.2 secs

     Computing kpt #:   161
     total cpu time spent up to now is     9236.4 secs

     Computing kpt #:   162
     total cpu time spent up to now is     9258.4 secs

     Computing kpt #:   163
     total cpu time spent up to now is     9276.5 secs

     Computing kpt #:   164
     total cpu time spent up to now is     9295.7 secs

     Computing kpt #:   165
     total cpu time spent up to now is     9309.1 secs

     Computing kpt #:   166
     total cpu time spent up to now is     9322.5 secs

     Computing kpt #:   167
     total cpu time spent up to now is     9340.0 secs

     Computing kpt #:   168
     total cpu time spent up to now is     9361.5 secs

     Computing kpt #:   169
     total cpu time spent up to now is     9380.4 secs

     Computing kpt #:   170
     total cpu time spent up to now is     9393.8 secs

     Computing kpt #:   171
     total cpu time spent up to now is     9407.0 secs

     Computing kpt #:   172
     total cpu time spent up to now is     9420.6 secs

     Computing kpt #:   173
     total cpu time spent up to now is     9436.3 secs

     Computing kpt #:   174
     total cpu time spent up to now is     9449.8 secs

     Computing kpt #:   175
     total cpu time spent up to now is     9463.4 secs

     Computing kpt #:   176
     total cpu time spent up to now is     9476.9 secs

     Computing kpt #:   177
     total cpu time spent up to now is     9490.3 secs

     ethr =  1.25E-13,  avg # of iterations = 20.9

     total cpu time spent up to now is     9490.3 secs

     End of band structure calculation

          k = 0.0000 0.0000 0.0000     band energies (ev):

   -45.3105 -45.3092 -21.6384 -21.5718 -21.5718 -21.5718 -21.5688 -21.5688
   -13.5961 -13.4394  -6.2442  -5.9147  -5.2610  -5.2610  -5.2208  -4.8681
     1.2200   1.2200   1.2200   1.4219   1.4219   1.7397   6.9483   8.2019
     8.2019   8.8040   8.8041   8.8041   9.0187   9.0803   9.1869   9.1869
     9.8869   9.8869   9.8869  10.3714  10.3714  10.9846  10.9846  10.9846

          k = 0.0167 0.0000 0.0000     band energies (ev):

   -45.3105 -45.3092 -21.6385 -21.5718 -21.5717 -21.5717 -21.5693 -21.5689
   -13.5957 -13.4392  -6.2427  -5.9148  -5.2609  -5.2609  -5.2204  -4.8689
     1.2206   1.2206   1.2215   1.4211   1.4226   1.7380   6.9474   8.2020
     8.2020   8.7988   8.8032   8.8032   8.9848   9.0455   9.1839   9.2573
     9.8831   9.8831   9.8840  10.3640  10.3669  10.9780  10.9833  10.9833

          k = 0.0333 0.0000 0.0000     band energies (ev):

   -45.3105 -45.3092 -21.6385 -21.5723 -21.5716 -21.5716 -21.5699 -21.5689
   -13.5945 -13.4384  -6.2382  -5.9153  -5.2606  -5.2604  -5.2194  -4.8712
     1.2221   1.2221   1.2259   1.4187   1.4245   1.7331   6.9454   8.2021
     8.2021   8.7830   8.8005   8.8005   8.8821   9.0489   9.1754   9.3649
     9.8716   9.8716   9.8753  10.3453  10.3545  10.9525  10.9767  10.9767

          k = 0.0500 0.0000 0.0000     band energies (ev):

   -45.3105 -45.3091 -21.6384 -21.5733 -21.5715 -21.5715 -21.5707 -21.5688
   -13.5924 -13.4371  -6.2308  -5.9162  -5.2601  -5.2596  -5.2178  -4.8751
     1.2247   1.2247   1.2330   1.4149   1.4278   1.7249   6.9423   8.2019
     8.2023   8.7569   8.7691   8.7959   8.7959   9.0651   9.1613   9.4754
     9.8529   9.8529   9.8611  10.3154  10.3341  10.9109  10.9643  10.9643

          k = 0.0667 0.0000 0.0000     band energies (ev):

   -45.3104 -45.3091 -21.6384 -21.5747 -21.5718 -21.5715 -21.5715 -21.5690
   -13.5896 -13.4354  -6.2205  -5.9178  -5.2593  -5.2580  -5.2155  -4.8804
     1.2283   1.2283   1.2430   1.4095   1.4323   1.7136   6.9378   8.2008
     8.2026   8.6546   8.7205   8.7894   8.7894   9.0885   9.1415   9.5852
     9.8276   9.8276   9.8415  10.2762  10.3061  10.8547  10.9475  10.9475

          k = 0.0833 0.0000 0.0000     band energies (ev):

   -45.3104 -45.3091 -21.6383 -21.5763 -21.5734 -21.5714 -21.5714 -21.5689
   -13.5860 -13.4332  -6.2073  -5.9203  -5.2584  -5.2555  -5.2126  -4.8872
     1.2328   1.2328   1.2555   1.4029   1.4380   1.6994   6.9326   8.1971
     8.2030   8.5403   8.6749   8.7809   8.7809   9.1170   9.1184   9.6931
     9.7967   9.7967   9.8169  10.2299  10.2722  10.7862  10.9271  10.9271

          k = 0.1000 0.0000 0.0000     band energies (ev):

   -45.3104 -45.3090 -21.6382 -21.5783 -21.5753 -21.5714 -21.5714 -21.5689
   -13.5816 -13.4305  -6.1914  -5.9239  -5.2572  -5.2518  -5.2092  -4.8954
     1.2383   1.2383   1.2706   1.3950   1.4450   1.6824   6.9266   8.1889
     8.2034   8.4268   8.6200   8.7702   8.7702   9.0876   9.1541   9.7607
     9.7608   9.7878   9.7981  10.1794  10.2330  10.7073  10.9035  10.9035

          k = 0.1167 0.0000 0.0000     band energies (ev):

   -45.3103 -45.3090 -21.6380 -21.5805 -21.5775 -21.5714 -21.5714 -21.5687
   -13.5766 -13.4275  -6.1730  -5.9289  -5.2559  -5.2466  -5.2054  -4.9048
     1.2446   1.2446   1.2880   1.3861   1.4530   1.6630   6.9200   8.1767
     8.2040   8.3148   8.5567   8.7571   8.7571   9.0540   9.1957   9.7213
     9.7213   9.7544   9.9005  10.1277  10.1894  10.6202  10.8773  10.8773

          k = 0.1333 0.0000 0.0000     band energies (ev):

   -45.3103 -45.3089 -21.6378 -21.5830 -21.5799 -21.5713 -21.5713 -21.5687
   -13.5710 -13.4240  -6.1521  -5.9355  -5.2544  -5.2395  -5.2011  -4.9154
     1.2518   1.2518   1.3075   1.3763   1.4621   1.6413   6.9127   8.1576
     8.2046   8.2047   8.4859   8.7419   8.7419   9.0163   9.2421   9.6794
     9.6794   9.7177   9.9992  10.0777  10.1422  10.5270  10.8492  10.8492

          k = 0.1500 0.0000 0.0000     band energies (ev):

   -45.3102 -45.3089 -21.6375 -21.5859 -21.5825 -21.5712 -21.5712 -21.5685
   -13.5647 -13.4202  -6.1289  -5.9440  -5.2528  -5.2302  -5.1965  -4.9271
     1.2597   1.2597   1.3288   1.3657   1.4721   1.6177   6.9053   8.0969
     8.1307   8.2055   8.4083   8.7241   8.7241   8.9753   9.2932   9.6360
     9.6360   9.6778  10.0322  10.0925  10.0943  10.4295  10.8196  10.8196

          k = 0.1667 0.0000 0.0000     band energies (ev):

   -45.3102 -45.3088 -21.6373 -21.5886 -21.5854 -21.5711 -21.5711 -21.5684
   -13.5580 -13.4161  -6.1036  -5.9544  -5.2511  -5.2187  -5.1917  -4.9397
     1.2682   1.2682   1.3518   1.3546   1.4830   1.5926   6.8973   7.9915
     8.0947   8.2062   8.3251   8.7039   8.7039   8.9313   9.3477   9.5923
     9.5923   9.6369   9.9936  10.0414  10.1849  10.3299  10.7889  10.7889

          k = 0.1833 0.0000 0.0000     band energies (ev):

   -45.3101 -45.3088 -21.6371 -21.5917 -21.5886 -21.5709 -21.5709 -21.5683
   -13.5508 -13.4117  -6.0765  -5.9668  -5.2492  -5.2048  -5.1868  -4.9531
     1.2774   1.2774   1.3432   1.3762   1.4946   1.5661   6.8891   7.8892
     8.0490   8.2069   8.2371   8.6809   8.6809   8.8847   9.4053   9.5493
     9.5493   9.5933   9.9632   9.9889  10.2291  10.2708  10.7575  10.7575

          k = 0.2000 0.0000 0.0000     band energies (ev):

   -45.3100 -45.3087 -21.6368 -21.5950 -21.5917 -21.5708 -21.5708 -21.5682
   -13.5433 -13.4071  -6.0477  -5.9811  -5.2472  -5.1887  -5.1818  -4.9672
     1.2870   1.2870   1.3315   1.4017   1.5069   1.5388   6.8808   7.7900
     7.9940   8.1448   8.2073   8.6553   8.6553   8.8365   9.4653   9.5076
     9.5076   9.5485   9.9362   9.9431  10.1284  10.3524  10.7257  10.7257

          k = 0.2167 0.0000 0.0000     band energies (ev):

   -45.3100 -45.3086 -21.6365 -21.5985 -21.5949 -21.5706 -21.5706 -21.5679
   -13.5354 -13.4023  -6.0175  -5.9972  -5.2452  -5.1768  -5.1704  -4.9819
     1.2970   1.2970   1.3199   1.4281   1.5109   1.5197   6.8723   7.6947
     7.9309   8.0497   8.2084   8.6274   8.6274   8.7871   9.4680   9.4680
     9.5035   9.5274   9.8839   9.9325  10.0280  10.4288  10.6938  10.6938

          k = 0.2333 0.0000 0.0000     band energies (ev):

   -45.3099 -45.3086 -21.6362 -21.6019 -21.5983 -21.5706 -21.5706 -21.5677
   -13.5274 -13.3974  -6.0148  -5.9862  -5.2431  -5.1721  -5.1501  -4.9968
     1.3073   1.3073   1.3083   1.4549   1.4827   1.5329   6.8634   7.6027
     7.8599   7.9533   8.2092   8.5967   8.5967   8.7368   9.4308   9.4308
     9.4579   9.5902   9.8331   9.9311   9.9312  10.4998  10.6623  10.6623

          k = 0.2500 0.0000 0.0000     band energies (ev):

   -45.3098 -45.3085 -21.6360 -21.6054 -21.6018 -21.5705 -21.5705 -21.5676
   -13.5192 -13.3925  -6.0335  -5.9540  -5.2410  -5.1677  -5.1282  -5.0120
     1.2970   1.3178   1.3178   1.4546   1.4821   1.5464   6.8543   7.5150
     7.7834   7.8558   8.2100   8.5644   8.5644   8.6862   9.3965   9.3965
     9.4128   9.6534   9.7830   9.8370   9.9383  10.5656  10.6314  10.6314

          k = 0.2667 0.0000 0.0000     band energies (ev):

   -45.3098 -45.3084 -21.6358 -21.6087 -21.6052 -21.5703 -21.5703 -21.5675
   -13.5110 -13.3875  -6.0532  -5.9212  -5.2389  -5.1636  -5.1051  -5.0272
     1.2860   1.3284   1.3284   1.4269   1.5091   1.5599   6.8448   7.4317
     7.7033   7.7590   8.2109   8.5308   8.5308   8.6360   9.3655   9.3655
     9.3692   9.7162   9.7346   9.7467   9.9525  10.6015  10.6015  10.6261

          k = 0.2833 0.0000 0.0000     band energies (ev):

   -45.3097 -45.3084 -21.6356 -21.6122 -21.6084 -21.5702 -21.5702 -21.5674
   -13.5029 -13.3825  -6.0735  -5.8882  -5.2368  -5.1600  -5.0811  -5.0423
     1.2755   1.3389   1.3389   1.3999   1.5359   1.5735   6.8347   7.3531
     7.6219   7.6635   8.2118   8.4961   8.4961   8.5865   9.3261   9.3374
     9.3374   9.6605   9.6880   9.7781   9.9728  10.5725  10.5725  10.6810

          k = 0.3000 0.0000 0.0000     band energies (ev):

   -45.3096 -45.3083 -21.6353 -21.6157 -21.6116 -21.5701 -21.5701 -21.5672
   -13.4949 -13.3777  -6.0939  -5.8552  -5.2348  -5.1570  -5.0571  -5.0566
     1.2656   1.3493   1.3493   1.3739   1.5620   1.5868   6.8238   7.2792
     7.5409   7.5705   8.2126   8.4610   8.4610   8.5388   9.2848   9.3121
     9.3121   9.5785   9.6442   9.8382   9.9970  10.5443  10.5443  10.7312

          k = 0.3167 0.0000 0.0000     band energies (ev):

   -45.3096 -45.3082 -21.6350 -21.6190 -21.6147 -21.5700 -21.5700 -21.5670
   -13.4871 -13.3730  -6.1141  -5.8227  -5.2328  -5.1546  -5.0713  -5.0320
     1.2564   1.3491   1.3593   1.3593   1.5872   1.5998   6.8117   7.2104
     7.4627   7.4811   8.2134   8.4262   8.4262   8.4928   9.2455   9.2898
     9.2898   9.5022   9.6033   9.8961  10.0242  10.5182  10.5182  10.7762

          k = 0.3333 0.0000 0.0000     band energies (ev):

   -45.3095 -45.3082 -21.6349 -21.6221 -21.6178 -21.5699 -21.5699 -21.5669
   -13.4797 -13.3685  -6.1338  -5.7909  -5.2309  -5.1528  -5.0850  -5.0079
     1.2478   1.3257   1.3690   1.3690   1.6112   1.6123   6.7981   7.1468
     7.3886   7.3961   8.2140   8.3921   8.3921   8.4490   9.2085   9.2700
     9.2700   9.4313   9.5650   9.9509  10.0528  10.4937  10.4937  10.8158

          k = 0.3500 0.0000 0.0000     band energies (ev):

   -45.3094 -45.3081 -21.6346 -21.6249 -21.6206 -21.5697 -21.5697 -21.5668
   -13.4727 -13.3643  -6.1527  -5.7603  -5.2291  -5.1518  -5.0979  -4.9846
     1.2400   1.3041   1.3782   1.3782   1.6242   1.6338   6.7830   7.0886
     7.3165   7.3211   8.2149   8.3600   8.3600   8.4081   9.1744   9.2529
     9.2529   9.3666   9.5298  10.0025  10.0822  10.4713  10.4713  10.8511

          k = 0.3667 0.0000 0.0000     band energies (ev):

   -45.3094 -45.3080 -21.6345 -21.6275 -21.6233 -21.5695 -21.5695 -21.5667
   -13.4662 -13.3603  -6.1704  -5.7311  -5.2275  -5.1515  -5.1099  -4.9624
     1.2330   1.2843   1.3867   1.3867   1.6352   1.6548   6.7659   7.0361
     7.2433   7.2604   8.2156   8.3294   8.3294   8.3703   9.1430   9.2381
     9.2381   9.3083   9.4979  10.0500  10.1109  10.4507  10.4507  10.8813

          k = 0.3833 0.0000 0.0000     band energies (ev):

   -45.3093 -45.3080 -21.6344 -21.6298 -21.6257 -21.5694 -21.5694 -21.5666
   -13.4602 -13.3567  -6.1867  -5.7040  -5.2260  -5.1517  -5.1208  -4.9419
     1.2267   1.2665   1.3945   1.3945   1.6454   1.6738   6.7472   6.9893
     7.1770   7.2084   8.2160   8.3017   8.3017   8.3359   9.1152   9.2257
     9.2257   9.2556   9.4693  10.0931  10.1384  10.4324  10.4324  10.9074

          k = 0.4000 0.0000 0.0000     band energies (ev):

   -45.3093 -45.3080 -21.6342 -21.6320 -21.6277 -21.5693 -21.5693 -21.5665
   -13.4549 -13.3535  -6.2013  -5.6791  -5.2246  -5.1525  -5.1305  -4.9234
     1.2213   1.2508   1.4015   1.4015   1.6545   1.6907   6.7275   6.9487
     7.1179   7.1652   8.2166   8.2764   8.2764   8.3056   9.0904   9.2095
     9.2150   9.2150   9.4444  10.1314  10.1639  10.4162  10.4162  10.9295

          k = 0.4167 0.0000 0.0000     band energies (ev):

   -45.3093 -45.3079 -21.6342 -21.6339 -21.6295 -21.5692 -21.5692 -21.5665
   -13.4503 -13.3508  -6.2140  -5.6571  -5.2235  -5.1537  -5.1389  -4.9071
     1.2168   1.2374   1.4076   1.4076   1.6624   1.7053   6.7074   6.9140
     7.0670   7.1309   8.2170   8.2544   8.2544   8.2794   9.0691   9.1701
     9.2061   9.2061   9.4231  10.1641  10.1868  10.4023  10.4023  10.9477

          k = 0.4333 0.0000 0.0000     band energies (ev):

   -45.3092 -45.3079 -21.6358 -21.6341 -21.6310 -21.5693 -21.5693 -21.5664
   -13.4464 -13.3485  -6.2247  -5.6383  -5.2226  -5.1550  -5.1459  -4.8934
     1.2130   1.2263   1.4126   1.4126   1.6690   1.7175   6.6884   6.8854
     7.0244   7.1043   8.2173   8.2356   8.2356   8.2576   9.0504   9.1376
     9.1988   9.1988   9.4057  10.1917  10.2060  10.3908  10.3909  10.9623

          k = 0.4500 0.0000 0.0000     band energies (ev):

   -45.3092 -45.3079 -21.6370 -21.6340 -21.6323 -21.5692 -21.5692 -21.5664
   -13.4434 -13.3466  -6.2332  -5.6231  -5.2218  -5.1564  -5.1514  -4.8825
     1.2101   1.2176   1.4166   1.4166   1.6742   1.7271   6.6718   6.8630
     6.9911   7.0847   8.2176   8.2210   8.2210   8.2404   9.0366   9.1122
     9.1933   9.1933   9.3920  10.2133  10.2212  10.3819  10.3819  10.9733

          k = 0.4667 0.0000 0.0000     band energies (ev):

   -45.3092 -45.3078 -21.6379 -21.6339 -21.6332 -21.5692 -21.5692 -21.5663
   -13.4412 -13.3453  -6.2393  -5.6119  -5.2212  -5.1576  -5.1555  -4.8745
     1.2081   1.2114   1.4196   1.4196   1.6780   1.7341   6.6591   6.8473
     6.9670   7.0715   8.2104   8.2104   8.2181   8.2282   9.0267   9.0939
     9.1894   9.1894   9.3828  10.2290  10.2324  10.3754  10.3754  10.9808

          k = 0.4833 0.0000 0.0000     band energies (ev):

   -45.3092 -45.3078 -21.6384 -21.6339 -21.6337 -21.5689 -21.5689 -21.5663
   -13.4399 -13.3445  -6.2430  -5.6051  -5.2209  -5.1584  -5.1579  -4.8697
     1.2068   1.2077   1.4213   1.4213   1.6803   1.7383   6.6511   6.8377
     6.9527   7.0641   8.2040   8.2040   8.2182   8.2208   9.0207   9.0832
     9.1876   9.1876   9.3769  10.2385  10.2393  10.3722  10.3722  10.9856

          k = 0.5000 0.0000 0.0000     band energies (ev):

   -45.3092 -45.3078 -21.6384 -21.6339 -21.6339 -21.5688 -21.5688 -21.5663
   -13.4394 -13.3442  -6.2442  -5.6028  -5.2208  -5.1587  -5.1587  -4.8680
     1.2064   1.2064   1.4219   1.4219   1.6811   1.7397   6.6483   6.8345
     6.9484   7.0617   8.2019   8.2019   8.2183   8.2183   9.0187   9.0803
     9.1870   9.1870   9.3749  10.2416  10.2416  10.3714  10.3714  10.9871

          k = 0.5000 0.0000 0.0167     band energies (ev):

   -45.3092 -45.3078 -21.6385 -21.6339 -21.6337 -21.5693 -21.5689 -21.5663
   -13.4392 -13.3445  -6.2427  -5.6051  -5.2205  -5.1584  -5.1579  -4.8688
     1.2068   1.2077   1.4211   1.4226   1.6803   1.7380   6.6511   6.8377
     6.9474   7.0641   8.2019   8.2020   8.2182   8.2208   8.9848   9.0455
     9.1840   9.2573   9.3769  10.2385  10.2393  10.3639  10.3669  10.9856

          k = 0.5000 0.0000 0.0333     band energies (ev):

   -45.3092 -45.3078 -21.6385 -21.6339 -21.6332 -21.5699 -21.5689 -21.5663
   -13.4384 -13.3453  -6.2382  -5.6119  -5.2195  -5.1576  -5.1554  -4.8712
     1.2081   1.2114   1.4187   1.4245   1.6780   1.7331   6.6591   6.8473
     6.9455   7.0715   8.2021   8.2021   8.2181   8.2283   8.8821   9.0489
     9.1754   9.3649   9.3828  10.2290  10.2324  10.3453  10.3544  10.9808

          k = 0.5000 0.0000 0.0500     band energies (ev):

   -45.3091 -45.3079 -21.6384 -21.6340 -21.6323 -21.5707 -21.5688 -21.5664
   -13.4371 -13.3466  -6.2308  -5.6231  -5.2178  -5.1565  -5.1514  -4.8750
     1.2101   1.2176   1.4149   1.4278   1.6742   1.7249   6.6718   6.8630
     6.9423   7.0847   8.2019   8.2023   8.2176   8.2404   8.7691   9.0651
     9.1613   9.3920   9.4754  10.2133  10.2212  10.3154  10.3341  10.9733

          k = 0.5000 0.0000 0.0667     band energies (ev):

   -45.3091 -45.3079 -21.6384 -21.6341 -21.6310 -21.5718 -21.5690 -21.5664
   -13.4354 -13.3485  -6.2205  -5.6383  -5.2155  -5.1551  -5.1459  -4.8804
     1.2130   1.2263   1.4095   1.4323   1.6690   1.7136   6.6884   6.8854
     6.9379   7.1043   8.2008   8.2026   8.2173   8.2576   8.6546   9.0885
     9.1416   9.4057   9.5852  10.1917  10.2060  10.2762  10.3061  10.9623

          k = 0.5000 0.0000 0.0833     band energies (ev):

   -45.3091 -45.3079 -21.6383 -21.6342 -21.6295 -21.5734 -21.5689 -21.5665
   -13.4332 -13.3508  -6.2073  -5.6571  -5.2126  -5.1537  -5.1389  -4.8872
     1.2168   1.2374   1.4029   1.4380   1.6624   1.6994   6.7074   6.9140
     6.9326   7.1309   8.1971   8.2030   8.2170   8.2794   8.5403   9.1170
     9.1184   9.4231   9.6931  10.1641  10.1868  10.2299  10.2722  10.9477

          k = 0.5000 0.0000 0.1000     band energies (ev):

   -45.3090 -45.3080 -21.6382 -21.6342 -21.6277 -21.5753 -21.5689 -21.5665
   -13.4305 -13.3535  -6.1914  -5.6791  -5.2093  -5.1525  -5.1304  -4.8953
     1.2214   1.2508   1.3950   1.4450   1.6545   1.6824   6.7275   6.9266
     6.9487   7.1652   8.1889   8.2034   8.2166   8.3056   8.4268   9.0877
     9.1541   9.4444   9.7981  10.1314  10.1639  10.1794  10.2330  10.9295

          k = 0.5000 0.0000 0.1167     band energies (ev):

   -45.3090 -45.3080 -21.6380 -21.6344 -21.6257 -21.5775 -21.5687 -21.5666
   -13.4275 -13.3567  -6.1730  -5.7040  -5.2054  -5.1517  -5.1207  -4.9048
     1.2268   1.2665   1.3861   1.4530   1.6454   1.6630   6.7472   6.9200
     6.9893   7.2084   8.1766   8.2040   8.2160   8.3148   8.3360   9.0540
     9.1957   9.4692   9.9005  10.0931  10.1277  10.1384  10.1893  10.9074

          k = 0.5000 0.0000 0.1333     band energies (ev):

   -45.3089 -45.3080 -21.6378 -21.6345 -21.6233 -21.5799 -21.5687 -21.5667
   -13.4240 -13.3603  -6.1521  -5.7312  -5.2011  -5.1515  -5.1098  -4.9154
     1.2330   1.2843   1.3763   1.4621   1.6352   1.6413   6.7660   6.9127
     7.0361   7.2604   8.1576   8.2046   8.2047   8.2156   8.3703   9.0163
     9.2421   9.4979   9.9992  10.0500  10.0777  10.1109  10.1422  10.8813

          k = 0.5000 0.0000 0.1500     band energies (ev):

   -45.3089 -45.3081 -21.6375 -21.6346 -21.6206 -21.5825 -21.5685 -21.5668
   -13.4202 -13.3643  -6.1289  -5.7603  -5.1965  -5.1518  -5.0979  -4.9270
     1.2400   1.3041   1.3657   1.4721   1.6177   1.6242   6.7830   6.9053
     7.0886   7.3211   8.0969   8.1307   8.2055   8.2149   8.4081   8.9753
     9.2932   9.5298  10.0025  10.0322  10.0822  10.0925  10.0943  10.8511

          k = 0.5000 0.0000 0.1667     band energies (ev):

   -45.3088 -45.3082 -21.6373 -21.6349 -21.6178 -21.5854 -21.5684 -21.5669
   -13.4161 -13.3685  -6.1036  -5.7909  -5.1917  -5.1529  -5.0850  -4.9397
     1.2478   1.3257   1.3546   1.4830   1.5926   1.6123   6.7981   6.8973
     7.1468   7.3886   7.9915   8.0947   8.2062   8.2140   8.4491   8.9313
     9.3477   9.5650   9.9509   9.9936  10.0414  10.0528  10.1849  10.8158

          k = 0.5000 0.0000 0.1833     band energies (ev):

   -45.3088 -45.3082 -21.6371 -21.6350 -21.6147 -21.5886 -21.5683 -21.5670
   -13.4117 -13.3730  -6.0765  -5.8227  -5.1868  -5.1546  -5.0713  -4.9531
     1.2564   1.3432   1.3491   1.4946   1.5661   1.5998   6.8117   6.8891
     7.2104   7.4627   7.8892   8.0490   8.2069   8.2134   8.4928   8.8848
     9.4053   9.6033   9.8961   9.9632   9.9889  10.0242  10.2708  10.7762

          k = 0.5000 0.0000 0.2000     band energies (ev):

   -45.3087 -45.3083 -21.6368 -21.6353 -21.6116 -21.5917 -21.5682 -21.5672
   -13.4071 -13.3777  -6.0477  -5.8553  -5.1818  -5.1570  -5.0570  -4.9672
     1.2656   1.3315   1.3739   1.5069   1.5388   1.5868   6.8238   6.8808
     7.2792   7.5409   7.7900   7.9940   8.2073   8.2126   8.5388   8.8365
     9.4653   9.6442   9.8382   9.9362   9.9431   9.9970  10.3524  10.7312

          k = 0.5000 0.0000 0.2167     band energies (ev):

   -45.3086 -45.3084 -21.6365 -21.6356 -21.6084 -21.5949 -21.5679 -21.5674
   -13.4023 -13.3825  -6.0175  -5.8882  -5.1769  -5.1600  -5.0423  -4.9818
     1.2755   1.3199   1.3999   1.5109   1.5197   1.5735   6.8347   6.8723
     7.3531   7.6219   7.6947   7.9309   8.2084   8.2118   8.5865   8.7871
     9.5274   9.6880   9.7781   9.8839   9.9324   9.9728  10.4288  10.6810

          k = 0.5000 0.0000 0.2333     band energies (ev):

   -45.3086 -45.3084 -21.6362 -21.6358 -21.6052 -21.5983 -21.5677 -21.5675
   -13.3974 -13.3875  -5.9862  -5.9212  -5.1721  -5.1636  -5.0272  -4.9968
     1.2860   1.3083   1.4269   1.4827   1.5329   1.5599   6.8448   6.8635
     7.4317   7.6027   7.7033   7.8599   8.2092   8.2109   8.6361   8.7368
     9.5902   9.7162   9.7345   9.8331   9.9312   9.9524  10.4998  10.6261

          k = 0.5000 0.0000 0.2500     band energies (ev):

   -45.3085 -45.3085 -21.6360 -21.6360 -21.6018 -21.6018 -21.5676 -21.5676
   -13.3925 -13.3924  -5.9540  -5.9540  -5.1677  -5.1677  -5.0120  -5.0120
     1.2969   1.2970   1.4546   1.4546   1.5464   1.5464   6.8544   6.8544
     7.5150   7.5150   7.7833   7.7834   8.2100   8.2101   8.6863   8.6863
     9.6534   9.6534   9.7829   9.7830   9.9383   9.9383  10.5656  10.5656

          k = 0.5000 0.0000-0.2333     band energies (ev):

   -45.3086 -45.3084 -21.6362 -21.6358 -21.6052 -21.5983 -21.5677 -21.5675
   -13.3974 -13.3875  -5.9862  -5.9212  -5.1721  -5.1636  -5.0272  -4.9968
     1.2860   1.3083   1.4269   1.4827   1.5329   1.5599   6.8448   6.8635
     7.4317   7.6027   7.7033   7.8599   8.2092   8.2109   8.6361   8.7368
     9.5902   9.7162   9.7345   9.8331   9.9312   9.9524  10.4998  10.6261

          k = 0.5000 0.0000-0.2167     band energies (ev):

   -45.3086 -45.3084 -21.6365 -21.6356 -21.6084 -21.5949 -21.5679 -21.5674
   -13.4023 -13.3825  -6.0175  -5.8882  -5.1769  -5.1600  -5.0423  -4.9818
     1.2755   1.3199   1.3999   1.5109   1.5197   1.5735   6.8347   6.8723
     7.3531   7.6219   7.6947   7.9309   8.2084   8.2118   8.5865   8.7871
     9.5274   9.6880   9.7781   9.8839   9.9324   9.9728  10.4288  10.6810

          k = 0.5000 0.0000-0.2000     band energies (ev):

   -45.3087 -45.3083 -21.6368 -21.6353 -21.6116 -21.5917 -21.5682 -21.5672
   -13.4071 -13.3777  -6.0477  -5.8553  -5.1818  -5.1570  -5.0570  -4.9672
     1.2656   1.3315   1.3739   1.5069   1.5388   1.5868   6.8238   6.8808
     7.2792   7.5409   7.7900   7.9940   8.2073   8.2126   8.5388   8.8365
     9.4653   9.6442   9.8382   9.9362   9.9431   9.9970  10.3524  10.7312

          k = 0.5000 0.0000-0.1833     band energies (ev):

   -45.3088 -45.3082 -21.6371 -21.6350 -21.6147 -21.5886 -21.5683 -21.5670
   -13.4117 -13.3730  -6.0765  -5.8227  -5.1868  -5.1546  -5.0713  -4.9531
     1.2564   1.3432   1.3491   1.4946   1.5661   1.5998   6.8117   6.8891
     7.2104   7.4627   7.8892   8.0490   8.2069   8.2134   8.4928   8.8848
     9.4053   9.6033   9.8961   9.9632   9.9889  10.0242  10.2708  10.7762

          k = 0.5000 0.0000-0.1667     band energies (ev):

   -45.3088 -45.3082 -21.6373 -21.6349 -21.6178 -21.5854 -21.5684 -21.5669
   -13.4161 -13.3685  -6.1036  -5.7909  -5.1917  -5.1529  -5.0850  -4.9397
     1.2478   1.3257   1.3546   1.4830   1.5926   1.6123   6.7981   6.8973
     7.1468   7.3886   7.9915   8.0947   8.2062   8.2140   8.4491   8.9313
     9.3477   9.5650   9.9509   9.9936  10.0414  10.0528  10.1849  10.8158

          k = 0.5000 0.0000-0.1500     band energies (ev):

   -45.3089 -45.3081 -21.6375 -21.6346 -21.6206 -21.5825 -21.5685 -21.5668
   -13.4202 -13.3643  -6.1289  -5.7603  -5.1965  -5.1518  -5.0979  -4.9270
     1.2400   1.3041   1.3657   1.4721   1.6177   1.6242   6.7830   6.9053
     7.0886   7.3211   8.0969   8.1307   8.2055   8.2149   8.4081   8.9753
     9.2932   9.5298  10.0025  10.0322  10.0822  10.0925  10.0943  10.8511

          k = 0.5000 0.0000-0.1333     band energies (ev):

   -45.3089 -45.3080 -21.6378 -21.6345 -21.6233 -21.5799 -21.5687 -21.5667
   -13.4240 -13.3603  -6.1521  -5.7312  -5.2011  -5.1515  -5.1098  -4.9154
     1.2330   1.2843   1.3763   1.4621   1.6352   1.6413   6.7660   6.9127
     7.0361   7.2604   8.1576   8.2046   8.2047   8.2156   8.3703   9.0163
     9.2421   9.4979   9.9992  10.0500  10.0777  10.1109  10.1422  10.8813

          k = 0.5000 0.0000-0.1167     band energies (ev):

[...]
     8.6185   8.6185  10.4226  10.4226  10.6776  10.6776  11.0154  11.0415

          k = 0.5000 0.5000-0.1833     band energies (ev):

   -45.3074 -45.3069 -21.6330 -21.6330 -21.6318 -21.6318 -21.6120 -21.5857
   -13.3201 -13.2865  -5.4216  -5.1588  -5.1015  -5.1015  -5.0187  -5.0187
     0.6147   0.6147   0.7067   0.9476   0.9476   1.2217   6.6348   6.6569
     7.0671   7.0746   7.4663   7.5654   8.2172   8.4403   8.4403   8.5117
     8.6358   8.6358  10.3905  10.3905  10.7259  10.7259  11.0113  11.0454

          k = 0.5000 0.5000-0.1667     band energies (ev):

   -45.3075 -45.3069 -21.6331 -21.6331 -21.6317 -21.6317 -21.6148 -21.5827
   -13.3239 -13.2826  -5.4506  -5.1274  -5.1106  -5.1106  -5.0088  -5.0088
     0.5778   0.5778   0.6535   0.9873   0.9873   1.2881   6.6254   6.6562
     7.0663   7.0755   7.3728   7.4740   8.2975   8.4099   8.4099   8.6358
     8.6511   8.6511  10.3619  10.3619  10.7747  10.7747  11.0075  11.0494

          k = 0.5000 0.5000-0.1500     band energies (ev):

   -45.3076 -45.3068 -21.6333 -21.6333 -21.6315 -21.6315 -21.6176 -21.5798
   -13.3275 -13.2789  -5.4778  -5.1192  -5.1192  -5.0977  -4.9995  -4.9995
     0.5433   0.5433   0.6043   1.0249   1.0249   1.3523   6.6138   6.6552
     7.0655   7.0763   7.2830   7.3913   8.3720   8.3797   8.3797   8.6642
     8.6642   8.7559  10.3368  10.3368  10.8223  10.8223  11.0038  11.0531

          k = 0.5000 0.5000-0.1333     band energies (ev):

   -45.3076 -45.3067 -21.6333 -21.6333 -21.6314 -21.6314 -21.6202 -21.5771
   -13.3308 -13.2755  -5.5028  -5.1270  -5.1270  -5.0699  -4.9908  -4.9908
     0.5115   0.5115   0.5594   1.0601   1.0601   1.4134   6.6000   6.6542
     7.0650   7.0770   7.1983   7.3188   8.3504   8.3504   8.4404   8.6753
     8.6753   8.8702  10.3154  10.3154  10.8680  10.8680  11.0007  11.0565

          k = 0.5000 0.5000-0.1167     band energies (ev):

   -45.3077 -45.3067 -21.6335 -21.6335 -21.6312 -21.6312 -21.6226 -21.5747
   -13.3338 -13.2724  -5.5254  -5.1342  -5.1342  -5.0445  -4.9828  -4.9828
     0.4827   0.4827   0.5192   1.0924   1.0924   1.4705   6.5841   6.6531
     7.0643   7.0781   7.1196   7.2568   8.3226   8.3226   8.5020   8.6847
     8.6847   8.9774  10.2969  10.2969  10.9112  10.9112  10.9977  11.0603

          k = 0.5000 0.5000-0.1000     band energies (ev):

   -45.3077 -45.3067 -21.6336 -21.6336 -21.6311 -21.6311 -21.6250 -21.5725
   -13.3365 -13.2697  -5.5454  -5.1405  -5.1405  -5.0217  -4.9757  -4.9757
     0.4571   0.4571   0.4838   1.1213   1.1213   1.5226   6.5668   6.6519
     7.0484   7.0637   7.0786   7.2053   8.2970   8.2970   8.5562   8.6920
     8.6920   9.0752  10.2814  10.2814  10.9501  10.9501  10.9950  11.0630

          k = 0.5000 0.5000-0.0833     band energies (ev):

   -45.3077 -45.3066 -21.6336 -21.6336 -21.6309 -21.6309 -21.6268 -21.5704
   -13.3388 -13.2673  -5.5626  -5.1459  -5.1459  -5.0018  -4.9695  -4.9695
     0.4351   0.4351   0.4536   1.1465   1.1465   1.5687   6.5494   6.6510
     6.9857   7.0632   7.0792   7.1640   8.2745   8.2745   8.6029   8.6983
     8.6983   9.1621  10.2688  10.2688  10.9853  10.9853  10.9927  11.0658

          k = 0.5000 0.5000-0.0667     band energies (ev):

   -45.3078 -45.3066 -21.6337 -21.6337 -21.6307 -21.6307 -21.6282 -21.5689
   -13.3407 -13.2653  -5.5769  -5.1505  -5.1505  -4.9852  -4.9642  -4.9642
     0.4168   0.4168   0.4286   1.1677   1.1677   1.6079   6.5327   6.6500
     6.9327   7.0628   7.0800   7.1321   8.2549   8.2549   8.6416   8.7033
     8.7033   9.2360  10.2588  10.2588  10.9908  11.0153  11.0153  11.0682

          k = 0.5000 0.5000-0.0500     band energies (ev):

   -45.3078 -45.3065 -21.6338 -21.6338 -21.6306 -21.6306 -21.6293 -21.5678
   -13.3423 -13.2637  -5.5882  -5.1540  -5.1540  -4.9720  -4.9601  -4.9601
     0.4024   0.4024   0.4090   1.1844   1.1844   1.6393   6.5181   6.6492
     6.8902   7.0621   7.0804   7.1089   8.2391   8.2391   8.6722   8.7070
     8.7070   9.2952  10.2510  10.2510  10.9891  11.0396  11.0396  11.0698

          k = 0.5000 0.5000-0.0333     band energies (ev):

   -45.3078 -45.3065 -21.6339 -21.6339 -21.6305 -21.6305 -21.6298 -21.5671
   -13.3434 -13.2626  -5.5963  -5.1566  -5.1566  -4.9624  -4.9571  -4.9571
     0.3920   0.3920   0.3950   1.1966   1.1966   1.6623   6.5068   6.6486
     6.8595   7.0619   7.0806   7.0933   8.2273   8.2273   8.6941   8.7096
     8.7096   9.3386  10.2457  10.2457  10.9879  11.0577  11.0577  11.0710

          k = 0.5000 0.5000-0.0167     band energies (ev):

   -45.3078 -45.3065 -21.6338 -21.6338 -21.6305 -21.6305 -21.6303 -21.5664
   -13.3440 -13.2619  -5.6012  -5.1582  -5.1582  -4.9566  -4.9553  -4.9553
     0.3857   0.3857   0.3865   1.2039   1.2039   1.6764   6.4996   6.6484
     6.8408   7.0617   7.0808   7.0839   8.2207   8.2207   8.7072   8.7111
     8.7111   9.3659  10.2427  10.2427  10.9873  11.0684  11.0684  11.0717

          k = 0.0000 0.0000-0.0167     band energies (ev):

   -45.3105 -45.3092 -21.6384 -21.5718 -21.5717 -21.5717 -21.5689 -21.5689
   -13.5957 -13.4399  -6.2430  -5.9148  -5.2609  -5.2609  -5.2209  -4.8697
     1.2206   1.2206   1.2215   1.4213   1.4213   1.7383   6.9527   8.2041
     8.2041   8.7988   8.8032   8.8032   9.0207   9.0832   9.1875   9.1875
     9.8831   9.8831   9.8840  10.3722  10.3722  10.9780  10.9833  10.9833

          k = 0.0000 0.0000-0.0333     band energies (ev):

   -45.3105 -45.3092 -21.6379 -21.5723 -21.5716 -21.5716 -21.5692 -21.5692
   -13.5945 -13.4412  -6.2393  -5.9153  -5.2606  -5.2605  -5.2212  -4.8746
     1.2221   1.2221   1.2259   1.4196   1.4196   1.7341   6.9670   8.2104
     8.2104   8.7830   8.8005   8.8005   9.0267   9.0940   9.1894   9.1894
     9.8716   9.8716   9.8753  10.3755  10.3755  10.9525  10.9767  10.9767

          k = 0.0000 0.0000-0.0500     band energies (ev):

   -45.3105 -45.3092 -21.6370 -21.5733 -21.5715 -21.5715 -21.5692 -21.5692
   -13.5924 -13.4434  -6.2332  -5.9162  -5.2600  -5.2596  -5.2218  -4.8825
     1.2247   1.2247   1.2330   1.4166   1.4166   1.7271   6.9911   8.2210
     8.2210   8.7569   8.7959   8.7959   9.0366   9.1122   9.1933   9.1933
     9.8529   9.8529   9.8611  10.3819  10.3819  10.9109  10.9643  10.9643

          k = 0.0000 0.0000-0.0667     band energies (ev):

   -45.3104 -45.3092 -21.6358 -21.5747 -21.5715 -21.5715 -21.5693 -21.5693
   -13.5896 -13.4464  -6.2247  -5.9178  -5.2593  -5.2580  -5.2225  -4.8934
     1.2283   1.2283   1.2430   1.4126   1.4126   1.7175   7.0244   8.2356
     8.2356   8.7205   8.7894   8.7894   9.0504   9.1376   9.1987   9.1987
     9.8276   9.8276   9.8415  10.3909  10.3909  10.8547  10.9475  10.9475

          k = 0.0000 0.0000-0.0833     band energies (ev):

   -45.3104 -45.3093 -21.6339 -21.5763 -21.5714 -21.5714 -21.5692 -21.5692
   -13.5860 -13.4503  -6.2140  -5.9203  -5.2583  -5.2556  -5.2235  -4.9071
     1.2328   1.2328   1.2556   1.4076   1.4076   1.7053   7.0670   8.2544
     8.2544   8.6749   8.7809   8.7809   9.0691   9.1701   9.2061   9.2061
     9.7966   9.7966   9.8169  10.4023  10.4023  10.7862  10.9271  10.9271

          k = 0.0000 0.0000-0.1000     band energies (ev):

   -45.3104 -45.3093 -21.6320 -21.5783 -21.5714 -21.5714 -21.5693 -21.5693
   -13.5816 -13.4549  -6.2013  -5.9239  -5.2572  -5.2519  -5.2246  -4.9234
     1.2383   1.2383   1.2706   1.4015   1.4015   1.6907   7.1179   8.2764
     8.2764   8.6200   8.7702   8.7702   9.0904   9.2095   9.2150   9.2150
     9.7607   9.7607   9.7878  10.4162  10.4162  10.7073  10.9035  10.9035

          k = 0.0000 0.0000-0.1167     band energies (ev):

   -45.3103 -45.3093 -21.6298 -21.5805 -21.5714 -21.5714 -21.5694 -21.5694
   -13.5766 -13.4602  -6.1866  -5.9289  -5.2559  -5.2466  -5.2260  -4.9419
     1.2446   1.2446   1.2880   1.3945   1.3945   1.6738   7.1769   8.3017
     8.3017   8.5567   8.7571   8.7571   9.1152   9.2257   9.2257   9.2556
     9.7213   9.7213   9.7544  10.4324  10.4324  10.6202  10.8773  10.8773

          k = 0.0000 0.0000-0.1333     band energies (ev):

   -45.3103 -45.3094 -21.6275 -21.5830 -21.5713 -21.5713 -21.5695 -21.5695
   -13.5710 -13.4662  -6.1703  -5.9355  -5.2544  -5.2395  -5.2275  -4.9624
     1.2518   1.2518   1.3075   1.3867   1.3867   1.6548   7.2433   8.3294
     8.3294   8.4859   8.7419   8.7419   9.1431   9.2381   9.2381   9.3083
     9.6794   9.6794   9.7178  10.4507  10.4507  10.5270  10.8492  10.8492

          k = 0.0000 0.0000-0.1500     band energies (ev):

   -45.3102 -45.3094 -21.6249 -21.5859 -21.5712 -21.5712 -21.5697 -21.5697
   -13.5647 -13.4727  -6.1526  -5.9440  -5.2528  -5.2302  -5.2291  -4.9846
     1.2597   1.2597   1.3288   1.3782   1.3782   1.6338   7.3165   8.3601
     8.3601   8.4083   8.7241   8.7241   9.1744   9.2529   9.2529   9.3666
     9.6360   9.6360   9.6778  10.4295  10.4713  10.4713  10.8196  10.8196

          k = 0.0000 0.0000-0.1667     band energies (ev):

   -45.3102 -45.3095 -21.6221 -21.5886 -21.5711 -21.5711 -21.5699 -21.5699
   -13.5580 -13.4797  -6.1338  -5.9544  -5.2510  -5.2309  -5.2187  -5.0079
     1.2682   1.2682   1.3518   1.3690   1.3690   1.6112   7.3960   8.3251
     8.3921   8.3921   8.7039   8.7039   9.2085   9.2700   9.2700   9.4313
     9.5923   9.5923   9.6369  10.3299  10.4937  10.4937  10.7889  10.7889

          k = 0.0000 0.0000-0.1833     band energies (ev):

   -45.3101 -45.3096 -21.6190 -21.5917 -21.5709 -21.5709 -21.5700 -21.5700
   -13.5508 -13.4871  -6.1141  -5.9668  -5.2492  -5.2328  -5.2049  -5.0321
     1.2774   1.2774   1.3593   1.3593   1.3762   1.5872   7.4810   8.2371
     8.4262   8.4262   8.6809   8.6809   9.2455   9.2898   9.2898   9.5022
     9.5493   9.5493   9.5933  10.2291  10.5182  10.5182  10.7575  10.7575

          k = 0.0000 0.0000-0.2000     band energies (ev):

   -45.3100 -45.3096 -21.6157 -21.5950 -21.5708 -21.5708 -21.5701 -21.5701
   -13.5433 -13.4949  -6.0939  -5.9811  -5.2472  -5.2348  -5.1887  -5.0566
     1.2870   1.2870   1.3493   1.3493   1.4018   1.5620   7.5705   8.1448
     8.4610   8.4610   8.6553   8.6553   9.2848   9.3121   9.3121   9.5076
     9.5076   9.5485   9.5785  10.1284  10.5443  10.5443  10.7257  10.7257

          k = 0.0000 0.0000-0.2167     band energies (ev):

   -45.3100 -45.3097 -21.6122 -21.5985 -21.5706 -21.5706 -21.5702 -21.5702
   -13.5354 -13.5029  -6.0735  -5.9972  -5.2452  -5.2368  -5.1704  -5.0811
     1.2970   1.2970   1.3389   1.3389   1.4281   1.5359   7.6635   8.0497
     8.4961   8.4961   8.6274   8.6274   9.3261   9.3374   9.3374   9.4679
     9.4679   9.5035   9.6605  10.0281  10.5725  10.5725  10.6938  10.6938

          k = 0.0000 0.0000-0.2333     band energies (ev):

   -45.3099 -45.3098 -21.6087 -21.6019 -21.5706 -21.5706 -21.5703 -21.5703
   -13.5274 -13.5110  -6.0532  -6.0147  -5.2431  -5.2389  -5.1501  -5.1051
     1.3073   1.3073   1.3284   1.3284   1.4549   1.5092   7.7590   7.9533
     8.5308   8.5308   8.5967   8.5967   9.3655   9.3655   9.3692   9.4308
     9.4308   9.4579   9.7467   9.9311  10.6015  10.6015  10.6623  10.6623

          k = 0.0000 0.0000 0.2500     band energies (ev):

   -45.3098 -45.3098 -21.6054 -21.6054 -21.5705 -21.5705 -21.5705 -21.5705
   -13.5192 -13.5192  -6.0335  -6.0335  -5.2410  -5.2410  -5.1283  -5.1282
     1.3178   1.3178   1.3179   1.3179   1.4821   1.4821   7.8558   7.8558
     8.5644   8.5644   8.5644   8.5644   9.3965   9.3965   9.3965   9.3965
     9.4128   9.4128   9.8370   9.8370  10.6314  10.6314  10.6315  10.6315

          k = 0.0000 0.0000 0.2333     band energies (ev):

   -45.3099 -45.3098 -21.6087 -21.6019 -21.5706 -21.5706 -21.5703 -21.5703
   -13.5274 -13.5110  -6.0532  -6.0147  -5.2431  -5.2389  -5.1501  -5.1051
     1.3073   1.3073   1.3284   1.3284   1.4549   1.5092   7.7590   7.9533
     8.5308   8.5308   8.5967   8.5967   9.3655   9.3655   9.3692   9.4308
     9.4308   9.4579   9.7467   9.9311  10.6015  10.6015  10.6623  10.6623

          k = 0.0000 0.0000 0.2167     band energies (ev):

   -45.3100 -45.3097 -21.6122 -21.5985 -21.5706 -21.5706 -21.5702 -21.5702
   -13.5354 -13.5029  -6.0735  -5.9972  -5.2452  -5.2368  -5.1704  -5.0811
     1.2970   1.2970   1.3389   1.3389   1.4281   1.5359   7.6635   8.0497
     8.4961   8.4961   8.6274   8.6274   9.3261   9.3374   9.3374   9.4679
     9.4679   9.5035   9.6605  10.0281  10.5725  10.5725  10.6938  10.6938

          k = 0.0000 0.0000 0.2000     band energies (ev):

   -45.3100 -45.3096 -21.6157 -21.5950 -21.5708 -21.5708 -21.5701 -21.5701
   -13.5433 -13.4949  -6.0939  -5.9811  -5.2472  -5.2348  -5.1887  -5.0566
     1.2870   1.2870   1.3493   1.3493   1.4018   1.5620   7.5705   8.1448
     8.4610   8.4610   8.6553   8.6553   9.2848   9.3121   9.3121   9.5076
     9.5076   9.5485   9.5785  10.1284  10.5443  10.5443  10.7257  10.7257

          k = 0.0000 0.0000 0.1833     band energies (ev):

   -45.3101 -45.3096 -21.6190 -21.5917 -21.5709 -21.5709 -21.5700 -21.5700
   -13.5508 -13.4871  -6.1141  -5.9668  -5.2492  -5.2328  -5.2049  -5.0321
     1.2774   1.2774   1.3593   1.3593   1.3762   1.5872   7.4810   8.2371
     8.4262   8.4262   8.6809   8.6809   9.2455   9.2898   9.2898   9.5022
     9.5493   9.5493   9.5933  10.2291  10.5182  10.5182  10.7575  10.7575

          k = 0.0000 0.0000 0.1667     band energies (ev):

   -45.3102 -45.3095 -21.6221 -21.5886 -21.5711 -21.5711 -21.5699 -21.5699
   -13.5580 -13.4797  -6.1338  -5.9544  -5.2510  -5.2309  -5.2187  -5.0079
     1.2682   1.2682   1.3518   1.3690   1.3690   1.6112   7.3960   8.3251
     8.3921   8.3921   8.7039   8.7039   9.2085   9.2700   9.2700   9.4313
     9.5923   9.5923   9.6369  10.3299  10.4937  10.4937  10.7889  10.7889

          k = 0.0000 0.0000 0.1500     band energies (ev):

   -45.3102 -45.3094 -21.6249 -21.5859 -21.5712 -21.5712 -21.5697 -21.5697
   -13.5647 -13.4727  -6.1526  -5.9440  -5.2528  -5.2302  -5.2291  -4.9846
     1.2597   1.2597   1.3288   1.3782   1.3782   1.6338   7.3165   8.3601
     8.3601   8.4083   8.7241   8.7241   9.1744   9.2529   9.2529   9.3666
     9.6360   9.6360   9.6778  10.4295  10.4713  10.4713  10.8196  10.8196

          k = 0.0000 0.0000 0.1333     band energies (ev):

   -45.3103 -45.3094 -21.6275 -21.5830 -21.5713 -21.5713 -21.5695 -21.5695
   -13.5710 -13.4662  -6.1703  -5.9355  -5.2544  -5.2395  -5.2275  -4.9624
     1.2518   1.2518   1.3075   1.3867   1.3867   1.6548   7.2433   8.3294
     8.3294   8.4859   8.7419   8.7419   9.1431   9.2381   9.2381   9.3083
     9.6794   9.6794   9.7178  10.4507  10.4507  10.5270  10.8492  10.8492

          k = 0.0000 0.0000 0.1167     band energies (ev):

   -45.3103 -45.3093 -21.6298 -21.5805 -21.5714 -21.5714 -21.5694 -21.5694
   -13.5766 -13.4602  -6.1866  -5.9289  -5.2559  -5.2466  -5.2260  -4.9419
     1.2446   1.2446   1.2880   1.3945   1.3945   1.6738   7.1769   8.3017
     8.3017   8.5567   8.7571   8.7571   9.1152   9.2257   9.2257   9.2556
     9.7213   9.7213   9.7544  10.4324  10.4324  10.6202  10.8773  10.8773

          k = 0.0000 0.0000 0.1000     band energies (ev):

   -45.3104 -45.3093 -21.6320 -21.5783 -21.5714 -21.5714 -21.5693 -21.5693
   -13.5816 -13.4549  -6.2013  -5.9239  -5.2572  -5.2519  -5.2246  -4.9234
     1.2383   1.2383   1.2706   1.4015   1.4015   1.6907   7.1179   8.2764
     8.2764   8.6200   8.7702   8.7702   9.0904   9.2095   9.2150   9.2150
     9.7607   9.7607   9.7878  10.4162  10.4162  10.7073  10.9035  10.9035

          k = 0.0000 0.0000 0.0833     band energies (ev):

   -45.3104 -45.3093 -21.6339 -21.5763 -21.5714 -21.5714 -21.5692 -21.5692
   -13.5860 -13.4503  -6.2140  -5.9203  -5.2583  -5.2556  -5.2235  -4.9071
     1.2328   1.2328   1.2556   1.4076   1.4076   1.7053   7.0670   8.2544
     8.2544   8.6749   8.7809   8.7809   9.0691   9.1701   9.2061   9.2061
     9.7966   9.7966   9.8169  10.4023  10.4023  10.7862  10.9271  10.9271

          k = 0.0000 0.0000 0.0667     band energies (ev):

   -45.3104 -45.3092 -21.6358 -21.5747 -21.5715 -21.5715 -21.5693 -21.5693
   -13.5896 -13.4464  -6.2247  -5.9178  -5.2593  -5.2580  -5.2225  -4.8934
     1.2283   1.2283   1.2430   1.4126   1.4126   1.7175   7.0244   8.2356
     8.2356   8.7205   8.7894   8.7894   9.0504   9.1376   9.1987   9.1987
     9.8276   9.8276   9.8415  10.3909  10.3909  10.8547  10.9475  10.9475

          k = 0.0000 0.0000 0.0500     band energies (ev):

   -45.3105 -45.3092 -21.6370 -21.5733 -21.5715 -21.5715 -21.5692 -21.5692
   -13.5924 -13.4434  -6.2332  -5.9162  -5.2600  -5.2596  -5.2218  -4.8825
     1.2247   1.2247   1.2330   1.4166   1.4166   1.7271   6.9911   8.2210
     8.2210   8.7569   8.7959   8.7959   9.0366   9.1122   9.1933   9.1933
     9.8529   9.8529   9.8611  10.3819  10.3819  10.9109  10.9643  10.9643

          k = 0.0000 0.0000 0.0333     band energies (ev):

   -45.3105 -45.3092 -21.6379 -21.5723 -21.5716 -21.5716 -21.5692 -21.5692
   -13.5945 -13.4412  -6.2393  -5.9153  -5.2606  -5.2605  -5.2212  -4.8746
     1.2221   1.2221   1.2259   1.4196   1.4196   1.7341   6.9670   8.2104
     8.2104   8.7830   8.8005   8.8005   9.0267   9.0940   9.1894   9.1894
     9.8716   9.8716   9.8753  10.3755  10.3755  10.9525  10.9767  10.9767

          k = 0.0000 0.0000 0.0167     band energies (ev):

   -45.3105 -45.3092 -21.6384 -21.5718 -21.5717 -21.5717 -21.5689 -21.5689
   -13.5957 -13.4399  -6.2430  -5.9148  -5.2609  -5.2609  -5.2209  -4.8697
     1.2206   1.2206   1.2215   1.4213   1.4213   1.7383   6.9527   8.2041
     8.2041   8.7988   8.8032   8.8032   9.0207   9.0832   9.1875   9.1875
     9.8831   9.8831   9.8840  10.3722  10.3722  10.9780  10.9833  10.9833

     Writing output data file batio3.save

     init_run     :     12.91s CPU     14.33s WALL (       1 calls)
     electrons    :   3673.56s CPU   9474.96s WALL (       1 calls)

     Called by init_run:
     wfcinit      :      0.00s CPU      0.00s WALL (       1 calls)
     potinit      :      0.55s CPU      0.62s WALL (       1 calls)

     Called by electrons:
     c_bands      :   3673.55s CPU   9474.93s WALL (       1 calls)
     v_of_rho     :      0.49s CPU      0.52s WALL (       1 calls)
     v_h          :      0.02s CPU      0.02s WALL (       1 calls)
     v_xc         :      0.46s CPU      0.49s WALL (       1 calls)
     newd         :      4.61s CPU      4.64s WALL (       1 calls)

     Called by c_bands:
     init_us_2    :      2.56s CPU      2.69s WALL (     177 calls)
     cegterg      :   3461.48s CPU   9242.73s WALL (     256 calls)

     Called by sum_band:

     Called by *egterg:
     h_psi        :   1677.57s CPU   7447.32s WALL (    4124 calls)
     s_psi        :    391.53s CPU    394.27s WALL (    4124 calls)
     g_psi        :     13.36s CPU     13.33s WALL (    3691 calls)
     cdiaghg      :    128.39s CPU    128.94s WALL (    3868 calls)
     cegterg:over :    585.06s CPU    589.17s WALL (    3691 calls)
     cegterg:upda :    349.63s CPU    351.86s WALL (    3691 calls)
     cegterg:last :    434.60s CPU    437.62s WALL (    1083 calls)

     Called by h_psi:
     h_psi:vloc   :    904.81s CPU    911.49s WALL (    4124 calls)
     h_psi:vnl    :    768.46s CPU   6531.51s WALL (    4124 calls)
     add_vuspsi   :    394.18s CPU    396.80s WALL (    4124 calls)

     General routines
     calbec       :    374.19s CPU   6134.65s WALL (    4124 calls)
     fft          :      0.18s CPU      0.51s WALL (      12 calls)
     ffts         :      0.01s CPU      0.01s WALL (       1 calls)
     fftw         :    738.37s CPU    742.84s WALL (  254956 calls)
     interpolate  :      0.03s CPU      0.03s WALL (       1 calls)
     davcio       :      0.27s CPU     18.40s WALL (     354 calls)

     Parallel routines
     fft_scatter  :     38.81s CPU     39.77s WALL (  254969 calls)

     PWSCF        :     1h 1m CPU        2h38m WALL


   This run was terminated on:  21:45:11  14Feb2014            

=------------------------------------------------------------------------------=
   JOB DONE.
=------------------------------------------------------------------------------=
