
     Program PWSCF v.6.5 starts on 26Jul2020 at 13:53:21 

     This program is part of the open-source Quantum ESPRESSO suite
     for quantum simulation of materials; please cite
         "P. Giannozzi et al., J. Phys.:Condens. Matter 21 395502 (2009);
         "P. Giannozzi et al., J. Phys.:Condens. Matter 29 465901 (2017);
          URL http://www.quantum-espresso.org", 
     in publications or presentations arising from this work. More details at
     http://www.quantum-espresso.org/quote

     Serial multi-threaded version, running on    2 processor cores
     Fft bands division:     nmany     =       1
     Reading input from band.in

     Current dimensions of program PWSCF are:
     Max number of different atomic species (ntypx) = 10
     Max number of k-points (npk) =  40000
     Max angular momentum in pseudopotentials (lmaxx) =  3

     Atomic positions and unit cell read from directory:
     ./out/aiida.save/
     Atomic positions from file used, from input discarded

     file Fe.pbe-spn-kjpaw_psl.0.2.1.UPF: wavefunction(s)  3D renormalized
     Message from routine setup:
     using ibrav=0 with symmetry is DISCOURAGED, use correct ibrav instead

     G-vector sticks info
     --------------------
     sticks:   dense  smooth     PW     G-vecs:    dense   smooth      PW
     Sum        1207     485    151                34067     8599    1523



     bravais-lattice index     =            0
     lattice parameter (alat)  =       4.6247  a.u.
     unit-cell volume          =     180.3269 (a.u.)^3
     number of atoms/cell      =            5
     number of atomic types    =            2
     number of electrons       =        36.00
     number of Kohn-Sham states=           22
     kinetic-energy cutoff     =      50.0000  Ry
     charge density cutoff     =     500.0000  Ry
     Exchange-correlation= PBE
                           (   1   4   3   4   0   0   0)

     celldm(1)=   4.624727  celldm(2)=   0.000000  celldm(3)=   0.000000
     celldm(4)=   0.000000  celldm(5)=   0.000000  celldm(6)=   0.000000

     crystal axes: (cart. coord. in units of alat)
               a(1) = (  -1.000000   0.000000   0.000000 )  
               a(2) = (  -0.034383  -1.416982   0.000000 )  
               a(3) = (   0.494744   0.389367   1.286583 )  

     reciprocal axes: (cart. coord. in units 2 pi/alat)
               b(1) = ( -1.000000  0.024265  0.377198 )  
               b(2) = (  0.000000 -0.705725  0.213578 )  
               b(3) = (  0.000000  0.000000  0.777252 )  


     PseudoPot. # 1 for Fe read from file:
     ./pseudo/Fe.pbe-spn-kjpaw_psl.0.2.1.UPF
     MD5 check sum: e86618425769142926afa95317d90200
     Pseudo is Projector augmented-wave + core cor, Zval = 16.0
     Generated using "atomic" code by A. Dal Corso v.5.0.99 svn rev. 10869
     Shape of augmentation charge: PSQ
     Using radial grid of 1191 points,  6 beta functions with: 
                l(1) =   0
                l(2) =   0
                l(3) =   1
                l(4) =   1
                l(5) =   2
                l(6) =   2
     Q(r) pseudized with 0 coefficients 


     PseudoPot. # 2 for N  read from file:
     ./pseudo/N.pbe-n-radius_5.UPF
     MD5 check sum: 16739722b17309cd8fe442a2ace49922
     Pseudo is Ultrasoft + core correction, Zval =  5.0
     Generated using "atomic" code by A. Dal Corso v.5.1
     Using radial grid of 1085 points,  4 beta functions with: 
                l(1) =   0
                l(2) =   0
                l(3) =   1
                l(4) =   1
     Q(r) pseudized with 0 coefficients 


     atomic species   valence    mass     pseudopotential
        Fe            16.00    55.84500     Fe( 1.00)
        N              5.00    14.00670     N ( 1.00)

      2 Sym. Ops., with inversion, found


                                    s                        frac. trans.

      isym =  1     identity                                     

 cryst.   s( 1) = (     1          0          0      )
                  (     0          1          0      )
                  (     0          0          1      )

 cart.    s( 1) = (  1.0000000 -0.0000000  0.0000000 )
                  (  0.0000000  1.0000000 -0.0000000 )
                  (  0.0000000  0.0000000  1.0000000 )


      isym =  2     inversion                                    

 cryst.   s( 2) = (    -1          0          0      )
                  (     0         -1          0      )
                  (     0          0         -1      )

 cart.    s( 2) = ( -1.0000000  0.0000000  0.0000000 )
                  (  0.0000000 -1.0000000  0.0000000 )
                  (  0.0000000  0.0000000 -1.0000000 )


   Cartesian axes

     site n.     atom                  positions (alat units)
         1           Fe  tau(   1) = (   0.5000000   0.0000000   0.0000000  )
         2           N   tau(   2) = (   0.6144374   1.1155488   0.6239930  )
         3           N   tau(   3) = (   0.9146898   0.6907994   0.6625905  )
         4           N   tau(   4) = (   0.5237334   1.3143789   1.1077483  )
         5           N   tau(   5) = (   1.0053938   0.4919693   0.1788351  )

   Crystallographic axes

     site n.     atom                  positions (cryst. coord.)
         1           Fe  tau(   1) = ( -0.5000000  0.0000000  0.0000000  )
         2           N   tau(   2) = ( -0.3520000 -0.6540000  0.4850000  )
         3           N   tau(   3) = ( -0.6480000 -0.3460000  0.5150000  )
         4           N   tau(   4) = ( -0.0740000 -0.6910000  0.8610000  )
         5           N   tau(   5) = ( -0.9260000 -0.3090000  0.1390000  )

     number of k points=   354  Marzari-Vanderbilt smearing, width (Ry)=  0.0220
                       cart. coord. in units 2pi/alat
        k(    1) = (   0.0000000   0.0000000   0.0000000), wk =   0.0056497
        k(    2) = (  -0.0094340   0.0002289   0.0035585), wk =   0.0056497
        k(    3) = (  -0.0188679   0.0004578   0.0071169), wk =   0.0056497
        k(    4) = (  -0.0283019   0.0006867   0.0106754), wk =   0.0056497
        k(    5) = (  -0.0377358   0.0009157   0.0142339), wk =   0.0056497
        k(    6) = (  -0.0471698   0.0011446   0.0177923), wk =   0.0056497
        k(    7) = (  -0.0566038   0.0013735   0.0213508), wk =   0.0056497
        k(    8) = (  -0.0660377   0.0016024   0.0249093), wk =   0.0056497
        k(    9) = (  -0.0754717   0.0018313   0.0284678), wk =   0.0056497
        k(   10) = (  -0.0849057   0.0020602   0.0320262), wk =   0.0056497
        k(   11) = (  -0.0943396   0.0022891   0.0355847), wk =   0.0056497
        k(   12) = (  -0.1037736   0.0025180   0.0391432), wk =   0.0056497
        k(   13) = (  -0.1132075   0.0027470   0.0427016), wk =   0.0056497
        k(   14) = (  -0.1226415   0.0029759   0.0462601), wk =   0.0056497
        k(   15) = (  -0.1320755   0.0032048   0.0498186), wk =   0.0056497
        k(   16) = (  -0.1415094   0.0034337   0.0533770), wk =   0.0056497
        k(   17) = (  -0.1509434   0.0036626   0.0569355), wk =   0.0056497
        k(   18) = (  -0.1603774   0.0038915   0.0604940), wk =   0.0056497
        k(   19) = (  -0.1698113   0.0041204   0.0640524), wk =   0.0056497
        k(   20) = (  -0.1792453   0.0043494   0.0676109), wk =   0.0056497
        k(   21) = (  -0.1886792   0.0045783   0.0711694), wk =   0.0056497
        k(   22) = (  -0.1981132   0.0048072   0.0747279), wk =   0.0056497
        k(   23) = (  -0.2075472   0.0050361   0.0782863), wk =   0.0056497
        k(   24) = (  -0.2169811   0.0052650   0.0818448), wk =   0.0056497
        k(   25) = (  -0.2264151   0.0054939   0.0854033), wk =   0.0056497
        k(   26) = (  -0.2358491   0.0057228   0.0889617), wk =   0.0056497
        k(   27) = (  -0.2452830   0.0059518   0.0925202), wk =   0.0056497
        k(   28) = (  -0.2547170   0.0061807   0.0960787), wk =   0.0056497
        k(   29) = (  -0.2641509   0.0064096   0.0996371), wk =   0.0056497
        k(   30) = (  -0.2735849   0.0066385   0.1031956), wk =   0.0056497
        k(   31) = (  -0.2830189   0.0068674   0.1067541), wk =   0.0056497
        k(   32) = (  -0.2924528   0.0070963   0.1103125), wk =   0.0056497
        k(   33) = (  -0.3018868   0.0073252   0.1138710), wk =   0.0056497
        k(   34) = (  -0.3113208   0.0075541   0.1174295), wk =   0.0056497
        k(   35) = (  -0.3207547   0.0077831   0.1209880), wk =   0.0056497
        k(   36) = (  -0.3301887   0.0080120   0.1245464), wk =   0.0056497
        k(   37) = (  -0.3396226   0.0082409   0.1281049), wk =   0.0056497
        k(   38) = (  -0.3490566   0.0084698   0.1316634), wk =   0.0056497
        k(   39) = (  -0.3584906   0.0086987   0.1352218), wk =   0.0056497
        k(   40) = (  -0.3679245   0.0089276   0.1387803), wk =   0.0056497
        k(   41) = (  -0.3773585   0.0091565   0.1423388), wk =   0.0056497
        k(   42) = (  -0.3867925   0.0093855   0.1458972), wk =   0.0056497
        k(   43) = (  -0.3962264   0.0096144   0.1494557), wk =   0.0056497
        k(   44) = (  -0.4056604   0.0098433   0.1530142), wk =   0.0056497
        k(   45) = (  -0.4150943   0.0100722   0.1565727), wk =   0.0056497
        k(   46) = (  -0.4245283   0.0103011   0.1601311), wk =   0.0056497
        k(   47) = (  -0.4339623   0.0105300   0.1636896), wk =   0.0056497
        k(   48) = (  -0.4433962   0.0107589   0.1672481), wk =   0.0056497
        k(   49) = (  -0.4528302   0.0109879   0.1708065), wk =   0.0056497
        k(   50) = (  -0.4622642   0.0112168   0.1743650), wk =   0.0056497
        k(   51) = (  -0.4716981   0.0114457   0.1779235), wk =   0.0056497
        k(   52) = (  -0.4811321   0.0116746   0.1814819), wk =   0.0056497
        k(   53) = (  -0.4905660   0.0119035   0.1850404), wk =   0.0056497
        k(   54) = (  -0.5000000   0.0121324   0.1885989), wk =   0.0056497
        k(   55) = (   0.0000000  -0.3528627   0.1067890), wk =   0.0056497
        k(   56) = (   0.0000000  -0.3430610   0.1038226), wk =   0.0056497
        k(   57) = (   0.0000000  -0.3332592   0.1008563), wk =   0.0056497
        k(   58) = (   0.0000000  -0.3234575   0.0978899), wk =   0.0056497
        k(   59) = (   0.0000000  -0.3136557   0.0949235), wk =   0.0056497
        k(   60) = (   0.0000000  -0.3038540   0.0919572), wk =   0.0056497
        k(   61) = (   0.0000000  -0.2940523   0.0889908), wk =   0.0056497
        k(   62) = (   0.0000000  -0.2842505   0.0860245), wk =   0.0056497
        k(   63) = (   0.0000000  -0.2744488   0.0830581), wk =   0.0056497
        k(   64) = (   0.0000000  -0.2646470   0.0800917), wk =   0.0056497
        k(   65) = (   0.0000000  -0.2548453   0.0771254), wk =   0.0056497
        k(   66) = (   0.0000000  -0.2450436   0.0741590), wk =   0.0056497
        k(   67) = (   0.0000000  -0.2352418   0.0711927), wk =   0.0056497
        k(   68) = (   0.0000000  -0.2254401   0.0682263), wk =   0.0056497
        k(   69) = (   0.0000000  -0.2156383   0.0652599), wk =   0.0056497
        k(   70) = (   0.0000000  -0.2058366   0.0622936), wk =   0.0056497
        k(   71) = (   0.0000000  -0.1960348   0.0593272), wk =   0.0056497
        k(   72) = (   0.0000000  -0.1862331   0.0563609), wk =   0.0056497
        k(   73) = (   0.0000000  -0.1764314   0.0533945), wk =   0.0056497
        k(   74) = (   0.0000000  -0.1666296   0.0504281), wk =   0.0056497
        k(   75) = (   0.0000000  -0.1568279   0.0474618), wk =   0.0056497
        k(   76) = (   0.0000000  -0.1470261   0.0444954), wk =   0.0056497
        k(   77) = (   0.0000000  -0.1372244   0.0415290), wk =   0.0056497
        k(   78) = (   0.0000000  -0.1274226   0.0385627), wk =   0.0056497
        k(   79) = (   0.0000000  -0.1176209   0.0355963), wk =   0.0056497
        k(   80) = (   0.0000000  -0.1078192   0.0326300), wk =   0.0056497
        k(   81) = (   0.0000000  -0.0980174   0.0296636), wk =   0.0056497
        k(   82) = (   0.0000000  -0.0882157   0.0266972), wk =   0.0056497
        k(   83) = (   0.0000000  -0.0784139   0.0237309), wk =   0.0056497
        k(   84) = (   0.0000000  -0.0686122   0.0207645), wk =   0.0056497
        k(   85) = (   0.0000000  -0.0588105   0.0177982), wk =   0.0056497
        k(   86) = (   0.0000000  -0.0490087   0.0148318), wk =   0.0056497
        k(   87) = (   0.0000000  -0.0392070   0.0118654), wk =   0.0056497
        k(   88) = (   0.0000000  -0.0294052   0.0088991), wk =   0.0056497
        k(   89) = (   0.0000000  -0.0196035   0.0059327), wk =   0.0056497
        k(   90) = (   0.0000000  -0.0098017   0.0029664), wk =   0.0056497
        k(   91) = (   0.0000000   0.0000000   0.0000000), wk =   0.0056497
        k(   92) = (   0.0000000   0.0000000   0.0102270), wk =   0.0056497
        k(   93) = (   0.0000000   0.0000000   0.0204540), wk =   0.0056497
        k(   94) = (   0.0000000   0.0000000   0.0306810), wk =   0.0056497
        k(   95) = (   0.0000000   0.0000000   0.0409080), wk =   0.0056497
        k(   96) = (   0.0000000   0.0000000   0.0511350), wk =   0.0056497
        k(   97) = (   0.0000000   0.0000000   0.0613620), wk =   0.0056497
        k(   98) = (   0.0000000   0.0000000   0.0715890), wk =   0.0056497
        k(   99) = (   0.0000000   0.0000000   0.0818160), wk =   0.0056497
        k(  100) = (   0.0000000   0.0000000   0.0920430), wk =   0.0056497
        k(  101) = (   0.0000000   0.0000000   0.1022700), wk =   0.0056497
        k(  102) = (   0.0000000   0.0000000   0.1124971), wk =   0.0056497
        k(  103) = (   0.0000000   0.0000000   0.1227241), wk =   0.0056497
        k(  104) = (   0.0000000   0.0000000   0.1329511), wk =   0.0056497
        k(  105) = (   0.0000000   0.0000000   0.1431781), wk =   0.0056497
        k(  106) = (   0.0000000   0.0000000   0.1534051), wk =   0.0056497
        k(  107) = (   0.0000000   0.0000000   0.1636321), wk =   0.0056497
        k(  108) = (   0.0000000   0.0000000   0.1738591), wk =   0.0056497
        k(  109) = (   0.0000000   0.0000000   0.1840861), wk =   0.0056497
        k(  110) = (   0.0000000   0.0000000   0.1943131), wk =   0.0056497
        k(  111) = (   0.0000000   0.0000000   0.2045401), wk =   0.0056497
        k(  112) = (   0.0000000   0.0000000   0.2147671), wk =   0.0056497
        k(  113) = (   0.0000000   0.0000000   0.2249941), wk =   0.0056497
        k(  114) = (   0.0000000   0.0000000   0.2352211), wk =   0.0056497
        k(  115) = (   0.0000000   0.0000000   0.2454481), wk =   0.0056497
        k(  116) = (   0.0000000   0.0000000   0.2556751), wk =   0.0056497
        k(  117) = (   0.0000000   0.0000000   0.2659021), wk =   0.0056497
        k(  118) = (   0.0000000   0.0000000   0.2761291), wk =   0.0056497
        k(  119) = (   0.0000000   0.0000000   0.2863561), wk =   0.0056497
        k(  120) = (   0.0000000   0.0000000   0.2965831), wk =   0.0056497
        k(  121) = (   0.0000000   0.0000000   0.3068101), wk =   0.0056497
        k(  122) = (   0.0000000   0.0000000   0.3170371), wk =   0.0056497
        k(  123) = (   0.0000000   0.0000000   0.3272641), wk =   0.0056497
        k(  124) = (   0.0000000   0.0000000   0.3374912), wk =   0.0056497
        k(  125) = (   0.0000000   0.0000000   0.3477182), wk =   0.0056497
        k(  126) = (   0.0000000   0.0000000   0.3579452), wk =   0.0056497
        k(  127) = (   0.0000000   0.0000000   0.3681722), wk =   0.0056497
        k(  128) = (   0.0000000   0.0000000   0.3783992), wk =   0.0056497
        k(  129) = (   0.0000000   0.0000000   0.3886262), wk =   0.0056497
        k(  130) = (   0.5000000   0.3407303   0.0932383), wk =   0.0056497
        k(  131) = (   0.4918033   0.3351446   0.0917098), wk =   0.0056497
        k(  132) = (   0.4836066   0.3295588   0.0901813), wk =   0.0056497
        k(  133) = (   0.4754098   0.3239731   0.0886528), wk =   0.0056497
        k(  134) = (   0.4672131   0.3183873   0.0871243), wk =   0.0056497
        k(  135) = (   0.4590164   0.3128016   0.0855958), wk =   0.0056497
        k(  136) = (   0.4508197   0.3072158   0.0840673), wk =   0.0056497
        k(  137) = (   0.4426230   0.3016301   0.0825388), wk =   0.0056497
        k(  138) = (   0.4344262   0.2960444   0.0810103), wk =   0.0056497
        k(  139) = (   0.4262295   0.2904586   0.0794818), wk =   0.0056497
        k(  140) = (   0.4180328   0.2848729   0.0779533), wk =   0.0056497
        k(  141) = (   0.4098361   0.2792871   0.0764248), wk =   0.0056497
        k(  142) = (   0.4016393   0.2737014   0.0748964), wk =   0.0056497
        k(  143) = (   0.3934426   0.2681156   0.0733679), wk =   0.0056497
        k(  144) = (   0.3852459   0.2625299   0.0718394), wk =   0.0056497
        k(  145) = (   0.3770492   0.2569442   0.0703109), wk =   0.0056497
        k(  146) = (   0.3688525   0.2513584   0.0687824), wk =   0.0056497
        k(  147) = (   0.3606557   0.2457727   0.0672539), wk =   0.0056497
        k(  148) = (   0.3524590   0.2401869   0.0657254), wk =   0.0056497
        k(  149) = (   0.3442623   0.2346012   0.0641969), wk =   0.0056497
        k(  150) = (   0.3360656   0.2290154   0.0626684), wk =   0.0056497
        k(  151) = (   0.3278689   0.2234297   0.0611399), wk =   0.0056497
        k(  152) = (   0.3196721   0.2178440   0.0596114), wk =   0.0056497
        k(  153) = (   0.3114754   0.2122582   0.0580829), wk =   0.0056497
        k(  154) = (   0.3032787   0.2066725   0.0565544), wk =   0.0056497
        k(  155) = (   0.2950820   0.2010867   0.0550259), wk =   0.0056497
        k(  156) = (   0.2868852   0.1955010   0.0534974), wk =   0.0056497
        k(  157) = (   0.2786885   0.1899152   0.0519689), wk =   0.0056497
        k(  158) = (   0.2704918   0.1843295   0.0504404), wk =   0.0056497
        k(  159) = (   0.2622951   0.1787438   0.0489119), wk =   0.0056497
        k(  160) = (   0.2540984   0.1731580   0.0473834), wk =   0.0056497
        k(  161) = (   0.2459016   0.1675723   0.0458549), wk =   0.0056497
        k(  162) = (   0.2377049   0.1619865   0.0443264), wk =   0.0056497
        k(  163) = (   0.2295082   0.1564008   0.0427979), wk =   0.0056497
        k(  164) = (   0.2213115   0.1508150   0.0412694), wk =   0.0056497
        k(  165) = (   0.2131148   0.1452293   0.0397409), wk =   0.0056497
        k(  166) = (   0.2049180   0.1396436   0.0382124), wk =   0.0056497
        k(  167) = (   0.1967213   0.1340578   0.0366839), wk =   0.0056497
        k(  168) = (   0.1885246   0.1284721   0.0351554), wk =   0.0056497
        k(  169) = (   0.1803279   0.1228863   0.0336269), wk =   0.0056497
        k(  170) = (   0.1721311   0.1173006   0.0320984), wk =   0.0056497
        k(  171) = (   0.1639344   0.1117149   0.0305699), wk =   0.0056497
        k(  172) = (   0.1557377   0.1061291   0.0290414), wk =   0.0056497
        k(  173) = (   0.1475410   0.1005434   0.0275129), wk =   0.0056497
        k(  174) = (   0.1393443   0.0949576   0.0259844), wk =   0.0056497
        k(  175) = (   0.1311475   0.0893719   0.0244560), wk =   0.0056497
        k(  176) = (   0.1229508   0.0837861   0.0229275), wk =   0.0056497
        k(  177) = (   0.1147541   0.0782004   0.0213990), wk =   0.0056497
        k(  178) = (   0.1065574   0.0726147   0.0198705), wk =   0.0056497
        k(  179) = (   0.0983607   0.0670289   0.0183420), wk =   0.0056497
        k(  180) = (   0.0901639   0.0614432   0.0168135), wk =   0.0056497
        k(  181) = (   0.0819672   0.0558574   0.0152850), wk =   0.0056497
        k(  182) = (   0.0737705   0.0502717   0.0137565), wk =   0.0056497
        k(  183) = (   0.0655738   0.0446859   0.0122280), wk =   0.0056497
        k(  184) = (   0.0573770   0.0391002   0.0106995), wk =   0.0056497
        k(  185) = (   0.0491803   0.0335145   0.0091710), wk =   0.0056497
        k(  186) = (   0.0409836   0.0279287   0.0076425), wk =   0.0056497
        k(  187) = (   0.0327869   0.0223430   0.0061140), wk =   0.0056497
        k(  188) = (   0.0245902   0.0167572   0.0045855), wk =   0.0056497
        k(  189) = (   0.0163934   0.0111715   0.0030570), wk =   0.0056497
        k(  190) = (   0.0081967   0.0055857   0.0015285), wk =   0.0056497
        k(  191) = (   0.0000000   0.0000000   0.0000000), wk =   0.0056497
        k(  192) = (   0.0000000   0.0078414   0.0062630), wk =   0.0056497
        k(  193) = (   0.0000000   0.0156828   0.0125261), wk =   0.0056497
        k(  194) = (   0.0000000   0.0235242   0.0187891), wk =   0.0056497
        k(  195) = (   0.0000000   0.0313656   0.0250522), wk =   0.0056497
        k(  196) = (   0.0000000   0.0392070   0.0313152), wk =   0.0056497
        k(  197) = (   0.0000000   0.0470484   0.0375783), wk =   0.0056497
        k(  198) = (   0.0000000   0.0548898   0.0438413), wk =   0.0056497
        k(  199) = (   0.0000000   0.0627311   0.0501044), wk =   0.0056497
        k(  200) = (   0.0000000   0.0705725   0.0563674), wk =   0.0056497
        k(  201) = (   0.0000000   0.0784139   0.0626305), wk =   0.0056497
        k(  202) = (   0.0000000   0.0862553   0.0688935), wk =   0.0056497
        k(  203) = (   0.0000000   0.0940967   0.0751566), wk =   0.0056497
        k(  204) = (   0.0000000   0.1019381   0.0814196), wk =   0.0056497
        k(  205) = (   0.0000000   0.1097795   0.0876827), wk =   0.0056497
        k(  206) = (   0.0000000   0.1176209   0.0939457), wk =   0.0056497
        k(  207) = (   0.0000000   0.1254623   0.1002088), wk =   0.0056497
        k(  208) = (   0.0000000   0.1333037   0.1064718), wk =   0.0056497
        k(  209) = (   0.0000000   0.1411451   0.1127349), wk =   0.0056497
        k(  210) = (   0.0000000   0.1489865   0.1189979), wk =   0.0056497
        k(  211) = (   0.0000000   0.1568279   0.1252610), wk =   0.0056497
        k(  212) = (   0.0000000   0.1646693   0.1315240), wk =   0.0056497
        k(  213) = (   0.0000000   0.1725107   0.1377871), wk =   0.0056497
        k(  214) = (   0.0000000   0.1803521   0.1440501), wk =   0.0056497
        k(  215) = (   0.0000000   0.1881934   0.1503132), wk =   0.0056497
        k(  216) = (   0.0000000   0.1960348   0.1565762), wk =   0.0056497
        k(  217) = (   0.0000000   0.2038762   0.1628393), wk =   0.0056497
        k(  218) = (   0.0000000   0.2117176   0.1691023), wk =   0.0056497
        k(  219) = (   0.0000000   0.2195590   0.1753654), wk =   0.0056497
        k(  220) = (   0.0000000   0.2274004   0.1816284), wk =   0.0056497
        k(  221) = (   0.0000000   0.2352418   0.1878915), wk =   0.0056497
        k(  222) = (   0.0000000   0.2430832   0.1941545), wk =   0.0056497
        k(  223) = (   0.0000000   0.2509246   0.2004176), wk =   0.0056497
        k(  224) = (   0.0000000   0.2587660   0.2066806), wk =   0.0056497
        k(  225) = (   0.0000000   0.2666074   0.2129437), wk =   0.0056497
        k(  226) = (   0.0000000   0.2744488   0.2192067), wk =   0.0056497
        k(  227) = (   0.0000000   0.2822902   0.2254698), wk =   0.0056497
        k(  228) = (   0.0000000   0.2901316   0.2317328), wk =   0.0056497
        k(  229) = (   0.0000000   0.2979730   0.2379958), wk =   0.0056497
        k(  230) = (   0.0000000   0.3058144   0.2442589), wk =   0.0056497
        k(  231) = (   0.0000000   0.3136557   0.2505219), wk =   0.0056497
        k(  232) = (   0.0000000   0.3214971   0.2567850), wk =   0.0056497
        k(  233) = (   0.0000000   0.3293385   0.2630480), wk =   0.0056497
        k(  234) = (   0.0000000   0.3371799   0.2693111), wk =   0.0056497
        k(  235) = (   0.0000000   0.3450213   0.2755741), wk =   0.0056497
        k(  236) = (   0.0000000   0.3528627   0.2818372), wk =   0.0056497
        k(  237) = (   0.5000000  -0.0121324   0.2000273), wk =   0.0056497
        k(  238) = (   0.4907407  -0.0119077   0.1963231), wk =   0.0056497
        k(  239) = (   0.4814815  -0.0116831   0.1926189), wk =   0.0056497
        k(  240) = (   0.4722222  -0.0114584   0.1889147), wk =   0.0056497
        k(  241) = (   0.4629630  -0.0112337   0.1852105), wk =   0.0056497
        k(  242) = (   0.4537037  -0.0110090   0.1815063), wk =   0.0056497
        k(  243) = (   0.4444444  -0.0107844   0.1778020), wk =   0.0056497
        k(  244) = (   0.4351852  -0.0105597   0.1740978), wk =   0.0056497
        k(  245) = (   0.4259259  -0.0103350   0.1703936), wk =   0.0056497
        k(  246) = (   0.4166667  -0.0101103   0.1666894), wk =   0.0056497
        k(  247) = (   0.4074074  -0.0098857   0.1629852), wk =   0.0056497
        k(  248) = (   0.3981481  -0.0096610   0.1592810), wk =   0.0056497
        k(  249) = (   0.3888889  -0.0094363   0.1555768), wk =   0.0056497
        k(  250) = (   0.3796296  -0.0092117   0.1518726), wk =   0.0056497
        k(  251) = (   0.3703704  -0.0089870   0.1481684), wk =   0.0056497
        k(  252) = (   0.3611111  -0.0087623   0.1444642), wk =   0.0056497
        k(  253) = (   0.3518519  -0.0085376   0.1407600), wk =   0.0056497
        k(  254) = (   0.3425926  -0.0083130   0.1370557), wk =   0.0056497
        k(  255) = (   0.3333333  -0.0080883   0.1333515), wk =   0.0056497
        k(  256) = (   0.3240741  -0.0078636   0.1296473), wk =   0.0056497
        k(  257) = (   0.3148148  -0.0076389   0.1259431), wk =   0.0056497
        k(  258) = (   0.3055556  -0.0074143   0.1222389), wk =   0.0056497
        k(  259) = (   0.2962963  -0.0071896   0.1185347), wk =   0.0056497
        k(  260) = (   0.2870370  -0.0069649   0.1148305), wk =   0.0056497
        k(  261) = (   0.2777778  -0.0067402   0.1111263), wk =   0.0056497
        k(  262) = (   0.2685185  -0.0065156   0.1074221), wk =   0.0056497
        k(  263) = (   0.2592593  -0.0062909   0.1037179), wk =   0.0056497
        k(  264) = (   0.2500000  -0.0060662   0.1000136), wk =   0.0056497
        k(  265) = (   0.2407407  -0.0058415   0.0963094), wk =   0.0056497
        k(  266) = (   0.2314815  -0.0056169   0.0926052), wk =   0.0056497
        k(  267) = (   0.2222222  -0.0053922   0.0889010), wk =   0.0056497
        k(  268) = (   0.2129630  -0.0051675   0.0851968), wk =   0.0056497
        k(  269) = (   0.2037037  -0.0049428   0.0814926), wk =   0.0056497
        k(  270) = (   0.1944444  -0.0047182   0.0777884), wk =   0.0056497
        k(  271) = (   0.1851852  -0.0044935   0.0740842), wk =   0.0056497
        k(  272) = (   0.1759259  -0.0042688   0.0703800), wk =   0.0056497
        k(  273) = (   0.1666667  -0.0040441   0.0666758), wk =   0.0056497
        k(  274) = (   0.1574074  -0.0038195   0.0629716), wk =   0.0056497
        k(  275) = (   0.1481481  -0.0035948   0.0592673), wk =   0.0056497
        k(  276) = (   0.1388889  -0.0033701   0.0555631), wk =   0.0056497
        k(  277) = (   0.1296296  -0.0031454   0.0518589), wk =   0.0056497
        k(  278) = (   0.1203704  -0.0029208   0.0481547), wk =   0.0056497
        k(  279) = (   0.1111111  -0.0026961   0.0444505), wk =   0.0056497
        k(  280) = (   0.1018519  -0.0024714   0.0407463), wk =   0.0056497
        k(  281) = (   0.0925926  -0.0022467   0.0370421), wk =   0.0056497
        k(  282) = (   0.0833333  -0.0020221   0.0333379), wk =   0.0056497
        k(  283) = (   0.0740741  -0.0017974   0.0296337), wk =   0.0056497
        k(  284) = (   0.0648148  -0.0015727   0.0259295), wk =   0.0056497
        k(  285) = (   0.0555556  -0.0013480   0.0222253), wk =   0.0056497
        k(  286) = (   0.0462963  -0.0011234   0.0185210), wk =   0.0056497
        k(  287) = (   0.0370370  -0.0008987   0.0148168), wk =   0.0056497
        k(  288) = (   0.0277778  -0.0006740   0.0111126), wk =   0.0056497
        k(  289) = (   0.0185185  -0.0004493   0.0074084), wk =   0.0056497
        k(  290) = (   0.0092593  -0.0002247   0.0037042), wk =   0.0056497
        k(  291) = (   0.0000000   0.0000000   0.0000000), wk =   0.0056497
        k(  292) = (  -0.0079365   0.0057936   0.0012986), wk =   0.0056497
        k(  293) = (  -0.0158730   0.0115871   0.0025971), wk =   0.0056497
        k(  294) = (  -0.0238095   0.0173807   0.0038957), wk =   0.0056497
        k(  295) = (  -0.0317460   0.0231743   0.0051943), wk =   0.0056497
        k(  296) = (  -0.0396825   0.0289679   0.0064928), wk =   0.0056497
        k(  297) = (  -0.0476190   0.0347614   0.0077914), wk =   0.0056497
        k(  298) = (  -0.0555556   0.0405550   0.0090900), wk =   0.0056497
        k(  299) = (  -0.0634921   0.0463486   0.0103886), wk =   0.0056497
        k(  300) = (  -0.0714286   0.0521422   0.0116871), wk =   0.0056497
        k(  301) = (  -0.0793651   0.0579357   0.0129857), wk =   0.0056497
        k(  302) = (  -0.0873016   0.0637293   0.0142843), wk =   0.0056497
        k(  303) = (  -0.0952381   0.0695229   0.0155828), wk =   0.0056497
        k(  304) = (  -0.1031746   0.0753165   0.0168814), wk =   0.0056497
        k(  305) = (  -0.1111111   0.0811100   0.0181800), wk =   0.0056497
        k(  306) = (  -0.1190476   0.0869036   0.0194785), wk =   0.0056497
        k(  307) = (  -0.1269841   0.0926972   0.0207771), wk =   0.0056497
        k(  308) = (  -0.1349206   0.0984907   0.0220757), wk =   0.0056497
        k(  309) = (  -0.1428571   0.1042843   0.0233743), wk =   0.0056497
        k(  310) = (  -0.1507937   0.1100779   0.0246728), wk =   0.0056497
        k(  311) = (  -0.1587302   0.1158715   0.0259714), wk =   0.0056497
        k(  312) = (  -0.1666667   0.1216650   0.0272700), wk =   0.0056497
        k(  313) = (  -0.1746032   0.1274586   0.0285685), wk =   0.0056497
        k(  314) = (  -0.1825397   0.1332522   0.0298671), wk =   0.0056497
        k(  315) = (  -0.1904762   0.1390458   0.0311657), wk =   0.0056497
        k(  316) = (  -0.1984127   0.1448393   0.0324642), wk =   0.0056497
        k(  317) = (  -0.2063492   0.1506329   0.0337628), wk =   0.0056497
        k(  318) = (  -0.2142857   0.1564265   0.0350614), wk =   0.0056497
        k(  319) = (  -0.2222222   0.1622201   0.0363600), wk =   0.0056497
        k(  320) = (  -0.2301587   0.1680136   0.0376585), wk =   0.0056497
        k(  321) = (  -0.2380952   0.1738072   0.0389571), wk =   0.0056497
        k(  322) = (  -0.2460317   0.1796008   0.0402557), wk =   0.0056497
        k(  323) = (  -0.2539683   0.1853944   0.0415542), wk =   0.0056497
        k(  324) = (  -0.2619048   0.1911879   0.0428528), wk =   0.0056497
        k(  325) = (  -0.2698413   0.1969815   0.0441514), wk =   0.0056497
        k(  326) = (  -0.2777778   0.2027751   0.0454499), wk =   0.0056497
        k(  327) = (  -0.2857143   0.2085686   0.0467485), wk =   0.0056497
        k(  328) = (  -0.2936508   0.2143622   0.0480471), wk =   0.0056497
        k(  329) = (  -0.3015873   0.2201558   0.0493456), wk =   0.0056497
        k(  330) = (  -0.3095238   0.2259494   0.0506442), wk =   0.0056497
        k(  331) = (  -0.3174603   0.2317429   0.0519428), wk =   0.0056497
        k(  332) = (  -0.3253968   0.2375365   0.0532414), wk =   0.0056497
        k(  333) = (  -0.3333333   0.2433301   0.0545399), wk =   0.0056497
        k(  334) = (  -0.3412698   0.2491237   0.0558385), wk =   0.0056497
        k(  335) = (  -0.3492063   0.2549172   0.0571371), wk =   0.0056497
        k(  336) = (  -0.3571429   0.2607108   0.0584356), wk =   0.0056497
        k(  337) = (  -0.3650794   0.2665044   0.0597342), wk =   0.0056497
        k(  338) = (  -0.3730159   0.2722980   0.0610328), wk =   0.0056497
        k(  339) = (  -0.3809524   0.2780915   0.0623313), wk =   0.0056497
        k(  340) = (  -0.3888889   0.2838851   0.0636299), wk =   0.0056497
        k(  341) = (  -0.3968254   0.2896787   0.0649285), wk =   0.0056497
        k(  342) = (  -0.4047619   0.2954722   0.0662271), wk =   0.0056497
        k(  343) = (  -0.4126984   0.3012658   0.0675256), wk =   0.0056497
        k(  344) = (  -0.4206349   0.3070594   0.0688242), wk =   0.0056497
        k(  345) = (  -0.4285714   0.3128530   0.0701228), wk =   0.0056497
        k(  346) = (  -0.4365079   0.3186465   0.0714213), wk =   0.0056497
        k(  347) = (  -0.4444444   0.3244401   0.0727199), wk =   0.0056497
        k(  348) = (  -0.4523810   0.3302337   0.0740185), wk =   0.0056497
        k(  349) = (  -0.4603175   0.3360273   0.0753170), wk =   0.0056497
        k(  350) = (  -0.4682540   0.3418208   0.0766156), wk =   0.0056497
        k(  351) = (  -0.4761905   0.3476144   0.0779142), wk =   0.0056497
        k(  352) = (  -0.4841270   0.3534080   0.0792128), wk =   0.0056497
        k(  353) = (  -0.4920635   0.3592016   0.0805113), wk =   0.0056497
        k(  354) = (  -0.5000000   0.3649951   0.0818099), wk =   0.0056497

                       cryst. coord.
        k(    1) = (   0.0000000   0.0000000   0.0000000), wk =   0.0056497
        k(    2) = (   0.0094340   0.0000000   0.0000000), wk =   0.0056497
        k(    3) = (   0.0188679   0.0000000   0.0000000), wk =   0.0056497
        k(    4) = (   0.0283019   0.0000000   0.0000000), wk =   0.0056497
        k(    5) = (   0.0377358   0.0000000   0.0000000), wk =   0.0056497
        k(    6) = (   0.0471698   0.0000000   0.0000000), wk =   0.0056497
        k(    7) = (   0.0566038   0.0000000   0.0000000), wk =   0.0056497
        k(    8) = (   0.0660377   0.0000000   0.0000000), wk =   0.0056497
        k(    9) = (   0.0754717   0.0000000   0.0000000), wk =   0.0056497
        k(   10) = (   0.0849057   0.0000000   0.0000000), wk =   0.0056497
        k(   11) = (   0.0943396   0.0000000   0.0000000), wk =   0.0056497
        k(   12) = (   0.1037736   0.0000000   0.0000000), wk =   0.0056497
        k(   13) = (   0.1132075   0.0000000   0.0000000), wk =   0.0056497
        k(   14) = (   0.1226415   0.0000000   0.0000000), wk =   0.0056497
        k(   15) = (   0.1320755   0.0000000   0.0000000), wk =   0.0056497
        k(   16) = (   0.1415094  -0.0000000   0.0000000), wk =   0.0056497
        k(   17) = (   0.1509434   0.0000000   0.0000000), wk =   0.0056497
        k(   18) = (   0.1603774   0.0000000   0.0000000), wk =   0.0056497
        k(   19) = (   0.1698113   0.0000000   0.0000000), wk =   0.0056497
        k(   20) = (   0.1792453   0.0000000   0.0000000), wk =   0.0056497
        k(   21) = (   0.1886792   0.0000000   0.0000000), wk =   0.0056497
        k(   22) = (   0.1981132   0.0000000   0.0000000), wk =   0.0056497
        k(   23) = (   0.2075472   0.0000000   0.0000000), wk =   0.0056497
        k(   24) = (   0.2169811   0.0000000   0.0000000), wk =   0.0056497
        k(   25) = (   0.2264151   0.0000000   0.0000000), wk =   0.0056497
        k(   26) = (   0.2358491   0.0000000  -0.0000000), wk =   0.0056497
        k(   27) = (   0.2452830   0.0000000   0.0000000), wk =   0.0056497
        k(   28) = (   0.2547170   0.0000000   0.0000000), wk =   0.0056497
        k(   29) = (   0.2641509   0.0000000   0.0000000), wk =   0.0056497
        k(   30) = (   0.2735849   0.0000000   0.0000000), wk =   0.0056497
        k(   31) = (   0.2830189  -0.0000000   0.0000000), wk =   0.0056497
        k(   32) = (   0.2924528   0.0000000   0.0000000), wk =   0.0056497
        k(   33) = (   0.3018868  -0.0000000   0.0000000), wk =   0.0056497
        k(   34) = (   0.3113208   0.0000000   0.0000000), wk =   0.0056497
        k(   35) = (   0.3207547   0.0000000   0.0000000), wk =   0.0056497
        k(   36) = (   0.3301887   0.0000000   0.0000000), wk =   0.0056497
        k(   37) = (   0.3396226   0.0000000   0.0000000), wk =   0.0056497
        k(   38) = (   0.3490566   0.0000000   0.0000000), wk =   0.0056497
        k(   39) = (   0.3584906   0.0000000   0.0000000), wk =   0.0056497
        k(   40) = (   0.3679245   0.0000000   0.0000000), wk =   0.0056497
        k(   41) = (   0.3773585   0.0000000   0.0000000), wk =   0.0056497
        k(   42) = (   0.3867925   0.0000000   0.0000000), wk =   0.0056497
        k(   43) = (   0.3962264   0.0000000   0.0000000), wk =   0.0056497
        k(   44) = (   0.4056604   0.0000000   0.0000000), wk =   0.0056497
        k(   45) = (   0.4150943   0.0000000   0.0000000), wk =   0.0056497
        k(   46) = (   0.4245283   0.0000000   0.0000000), wk =   0.0056497
        k(   47) = (   0.4339623   0.0000000   0.0000000), wk =   0.0056497
        k(   48) = (   0.4433962   0.0000000  -0.0000000), wk =   0.0056497
        k(   49) = (   0.4528302   0.0000000   0.0000000), wk =   0.0056497
        k(   50) = (   0.4622642   0.0000000  -0.0000000), wk =   0.0056497
        k(   51) = (   0.4716981   0.0000000  -0.0000000), wk =   0.0056497
        k(   52) = (   0.4811321   0.0000000  -0.0000000), wk =   0.0056497
        k(   53) = (   0.4905660   0.0000000  -0.0000000), wk =   0.0056497
        k(   54) = (   0.5000000   0.0000000  -0.0000000), wk =   0.0056497
        k(   55) = (   0.0000000   0.5000000   0.0000000), wk =   0.0056497
        k(   56) = (   0.0000000   0.4861111   0.0000000), wk =   0.0056497
        k(   57) = (   0.0000000   0.4722222   0.0000000), wk =   0.0056497
        k(   58) = (   0.0000000   0.4583333   0.0000000), wk =   0.0056497
        k(   59) = (   0.0000000   0.4444444  -0.0000000), wk =   0.0056497
        k(   60) = (   0.0000000   0.4305556   0.0000000), wk =   0.0056497
        k(   61) = (   0.0000000   0.4166667   0.0000000), wk =   0.0056497
        k(   62) = (   0.0000000   0.4027778  -0.0000000), wk =   0.0056497
        k(   63) = (   0.0000000   0.3888889   0.0000000), wk =   0.0056497
        k(   64) = (   0.0000000   0.3750000  -0.0000000), wk =   0.0056497
        k(   65) = (   0.0000000   0.3611111   0.0000000), wk =   0.0056497
        k(   66) = (   0.0000000   0.3472222   0.0000000), wk =   0.0056497
        k(   67) = (   0.0000000   0.3333333   0.0000000), wk =   0.0056497
        k(   68) = (   0.0000000   0.3194444   0.0000000), wk =   0.0056497
        k(   69) = (   0.0000000   0.3055556   0.0000000), wk =   0.0056497
        k(   70) = (   0.0000000   0.2916667   0.0000000), wk =   0.0056497
        k(   71) = (   0.0000000   0.2777778   0.0000000), wk =   0.0056497
        k(   72) = (   0.0000000   0.2638889   0.0000000), wk =   0.0056497
        k(   73) = (   0.0000000   0.2500000   0.0000000), wk =   0.0056497
        k(   74) = (   0.0000000   0.2361111   0.0000000), wk =   0.0056497
        k(   75) = (   0.0000000   0.2222222  -0.0000000), wk =   0.0056497
        k(   76) = (   0.0000000   0.2083333   0.0000000), wk =   0.0056497
        k(   77) = (   0.0000000   0.1944444   0.0000000), wk =   0.0056497
        k(   78) = (   0.0000000   0.1805556   0.0000000), wk =   0.0056497
        k(   79) = (   0.0000000   0.1666667   0.0000000), wk =   0.0056497
        k(   80) = (   0.0000000   0.1527778   0.0000000), wk =   0.0056497
        k(   81) = (   0.0000000   0.1388889   0.0000000), wk =   0.0056497
        k(   82) = (   0.0000000   0.1250000   0.0000000), wk =   0.0056497
        k(   83) = (   0.0000000   0.1111111  -0.0000000), wk =   0.0056497
        k(   84) = (   0.0000000   0.0972222   0.0000000), wk =   0.0056497
        k(   85) = (   0.0000000   0.0833333   0.0000000), wk =   0.0056497
        k(   86) = (   0.0000000   0.0694444   0.0000000), wk =   0.0056497
        k(   87) = (   0.0000000   0.0555556   0.0000000), wk =   0.0056497
        k(   88) = (   0.0000000   0.0416667   0.0000000), wk =   0.0056497
        k(   89) = (   0.0000000   0.0277778   0.0000000), wk =   0.0056497
        k(   90) = (   0.0000000   0.0138889   0.0000000), wk =   0.0056497
        k(   91) = (   0.0000000   0.0000000   0.0000000), wk =   0.0056497
        k(   92) = (   0.0000000   0.0000000   0.0131579), wk =   0.0056497
        k(   93) = (   0.0000000   0.0000000   0.0263158), wk =   0.0056497
        k(   94) = (   0.0000000   0.0000000   0.0394737), wk =   0.0056497
        k(   95) = (   0.0000000   0.0000000   0.0526316), wk =   0.0056497
        k(   96) = (   0.0000000   0.0000000   0.0657895), wk =   0.0056497
        k(   97) = (   0.0000000   0.0000000   0.0789474), wk =   0.0056497
        k(   98) = (   0.0000000   0.0000000   0.0921053), wk =   0.0056497
        k(   99) = (   0.0000000   0.0000000   0.1052632), wk =   0.0056497
        k(  100) = (   0.0000000   0.0000000   0.1184211), wk =   0.0056497
        k(  101) = (   0.0000000   0.0000000   0.1315789), wk =   0.0056497
        k(  102) = (   0.0000000   0.0000000   0.1447368), wk =   0.0056497
        k(  103) = (   0.0000000   0.0000000   0.1578947), wk =   0.0056497
        k(  104) = (   0.0000000   0.0000000   0.1710526), wk =   0.0056497
        k(  105) = (   0.0000000   0.0000000   0.1842105), wk =   0.0056497
        k(  106) = (   0.0000000   0.0000000   0.1973684), wk =   0.0056497
        k(  107) = (   0.0000000   0.0000000   0.2105263), wk =   0.0056497
        k(  108) = (   0.0000000   0.0000000   0.2236842), wk =   0.0056497
        k(  109) = (   0.0000000   0.0000000   0.2368421), wk =   0.0056497
        k(  110) = (   0.0000000   0.0000000   0.2500000), wk =   0.0056497
        k(  111) = (   0.0000000   0.0000000   0.2631579), wk =   0.0056497
        k(  112) = (   0.0000000   0.0000000   0.2763158), wk =   0.0056497
        k(  113) = (   0.0000000   0.0000000   0.2894737), wk =   0.0056497
        k(  114) = (   0.0000000   0.0000000   0.3026316), wk =   0.0056497
        k(  115) = (   0.0000000   0.0000000   0.3157895), wk =   0.0056497
        k(  116) = (   0.0000000   0.0000000   0.3289474), wk =   0.0056497
        k(  117) = (   0.0000000   0.0000000   0.3421053), wk =   0.0056497
        k(  118) = (   0.0000000   0.0000000   0.3552632), wk =   0.0056497
        k(  119) = (   0.0000000   0.0000000   0.3684211), wk =   0.0056497
        k(  120) = (   0.0000000   0.0000000   0.3815789), wk =   0.0056497
        k(  121) = (   0.0000000   0.0000000   0.3947368), wk =   0.0056497
        k(  122) = (   0.0000000   0.0000000   0.4078947), wk =   0.0056497
        k(  123) = (   0.0000000   0.0000000   0.4210526), wk =   0.0056497
        k(  124) = (   0.0000000   0.0000000   0.4342105), wk =   0.0056497
        k(  125) = (   0.0000000   0.0000000   0.4473684), wk =   0.0056497
        k(  126) = (   0.0000000   0.0000000   0.4605263), wk =   0.0056497
        k(  127) = (   0.0000000   0.0000000   0.4736842), wk =   0.0056497
        k(  128) = (   0.0000000   0.0000000   0.4868421), wk =   0.0056497
        k(  129) = (   0.0000000   0.0000000   0.5000000), wk =   0.0056497
        k(  130) = (  -0.5000000  -0.5000000   0.5000000), wk =   0.0056497
        k(  131) = (  -0.4918033  -0.4918033   0.4918033), wk =   0.0056497
        k(  132) = (  -0.4836066  -0.4836066   0.4836066), wk =   0.0056497
        k(  133) = (  -0.4754098  -0.4754098   0.4754098), wk =   0.0056497
        k(  134) = (  -0.4672131  -0.4672131   0.4672131), wk =   0.0056497
        k(  135) = (  -0.4590164  -0.4590164   0.4590164), wk =   0.0056497
        k(  136) = (  -0.4508197  -0.4508197   0.4508197), wk =   0.0056497
        k(  137) = (  -0.4426230  -0.4426230   0.4426230), wk =   0.0056497
        k(  138) = (  -0.4344262  -0.4344262   0.4344262), wk =   0.0056497
        k(  139) = (  -0.4262295  -0.4262295   0.4262295), wk =   0.0056497
        k(  140) = (  -0.4180328  -0.4180328   0.4180328), wk =   0.0056497
        k(  141) = (  -0.4098361  -0.4098361   0.4098361), wk =   0.0056497
        k(  142) = (  -0.4016393  -0.4016393   0.4016393), wk =   0.0056497
        k(  143) = (  -0.3934426  -0.3934426   0.3934426), wk =   0.0056497
        k(  144) = (  -0.3852459  -0.3852459   0.3852459), wk =   0.0056497
        k(  145) = (  -0.3770492  -0.3770492   0.3770492), wk =   0.0056497
        k(  146) = (  -0.3688525  -0.3688525   0.3688525), wk =   0.0056497
        k(  147) = (  -0.3606557  -0.3606557   0.3606557), wk =   0.0056497
        k(  148) = (  -0.3524590  -0.3524590   0.3524590), wk =   0.0056497
        k(  149) = (  -0.3442623  -0.3442623   0.3442623), wk =   0.0056497
        k(  150) = (  -0.3360656  -0.3360656   0.3360656), wk =   0.0056497
        k(  151) = (  -0.3278689  -0.3278689   0.3278689), wk =   0.0056497
        k(  152) = (  -0.3196721  -0.3196721   0.3196721), wk =   0.0056497
        k(  153) = (  -0.3114754  -0.3114754   0.3114754), wk =   0.0056497
        k(  154) = (  -0.3032787  -0.3032787   0.3032787), wk =   0.0056497
        k(  155) = (  -0.2950820  -0.2950820   0.2950820), wk =   0.0056497
        k(  156) = (  -0.2868852  -0.2868852   0.2868852), wk =   0.0056497
        k(  157) = (  -0.2786885  -0.2786885   0.2786885), wk =   0.0056497
        k(  158) = (  -0.2704918  -0.2704918   0.2704918), wk =   0.0056497
        k(  159) = (  -0.2622951  -0.2622951   0.2622951), wk =   0.0056497
        k(  160) = (  -0.2540984  -0.2540984   0.2540984), wk =   0.0056497
        k(  161) = (  -0.2459016  -0.2459016   0.2459016), wk =   0.0056497
        k(  162) = (  -0.2377049  -0.2377049   0.2377049), wk =   0.0056497
        k(  163) = (  -0.2295082  -0.2295082   0.2295082), wk =   0.0056497
        k(  164) = (  -0.2213115  -0.2213115   0.2213115), wk =   0.0056497
        k(  165) = (  -0.2131148  -0.2131148   0.2131148), wk =   0.0056497
        k(  166) = (  -0.2049180  -0.2049180   0.2049180), wk =   0.0056497
        k(  167) = (  -0.1967213  -0.1967213   0.1967213), wk =   0.0056497
        k(  168) = (  -0.1885246  -0.1885246   0.1885246), wk =   0.0056497
        k(  169) = (  -0.1803279  -0.1803279   0.1803279), wk =   0.0056497
        k(  170) = (  -0.1721311  -0.1721311   0.1721311), wk =   0.0056497
        k(  171) = (  -0.1639344  -0.1639344   0.1639344), wk =   0.0056497
        k(  172) = (  -0.1557377  -0.1557377   0.1557377), wk =   0.0056497
        k(  173) = (  -0.1475410  -0.1475410   0.1475410), wk =   0.0056497
        k(  174) = (  -0.1393443  -0.1393443   0.1393443), wk =   0.0056497
        k(  175) = (  -0.1311475  -0.1311475   0.1311475), wk =   0.0056497
        k(  176) = (  -0.1229508  -0.1229508   0.1229508), wk =   0.0056497
        k(  177) = (  -0.1147541  -0.1147541   0.1147541), wk =   0.0056497
        k(  178) = (  -0.1065574  -0.1065574   0.1065574), wk =   0.0056497
        k(  179) = (  -0.0983607  -0.0983607   0.0983607), wk =   0.0056497
        k(  180) = (  -0.0901639  -0.0901639   0.0901639), wk =   0.0056497
        k(  181) = (  -0.0819672  -0.0819672   0.0819672), wk =   0.0056497
        k(  182) = (  -0.0737705  -0.0737705   0.0737705), wk =   0.0056497
        k(  183) = (  -0.0655738  -0.0655738   0.0655738), wk =   0.0056497
        k(  184) = (  -0.0573770  -0.0573770   0.0573770), wk =   0.0056497
        k(  185) = (  -0.0491803  -0.0491803   0.0491803), wk =   0.0056497
        k(  186) = (  -0.0409836  -0.0409836   0.0409836), wk =   0.0056497
        k(  187) = (  -0.0327869  -0.0327869   0.0327869), wk =   0.0056497
        k(  188) = (  -0.0245902  -0.0245902   0.0245902), wk =   0.0056497
        k(  189) = (  -0.0163934  -0.0163934   0.0163934), wk =   0.0056497
        k(  190) = (  -0.0081967  -0.0081967   0.0081967), wk =   0.0056497
        k(  191) = (   0.0000000   0.0000000   0.0000000), wk =   0.0056497
        k(  192) = (   0.0000000  -0.0111111   0.0111111), wk =   0.0056497
        k(  193) = (   0.0000000  -0.0222222   0.0222222), wk =   0.0056497
        k(  194) = (   0.0000000  -0.0333333   0.0333333), wk =   0.0056497
        k(  195) = (   0.0000000  -0.0444444   0.0444444), wk =   0.0056497
        k(  196) = (   0.0000000  -0.0555556   0.0555556), wk =   0.0056497
        k(  197) = (   0.0000000  -0.0666667   0.0666667), wk =   0.0056497
        k(  198) = (   0.0000000  -0.0777778   0.0777778), wk =   0.0056497
        k(  199) = (   0.0000000  -0.0888889   0.0888889), wk =   0.0056497
        k(  200) = (   0.0000000  -0.1000000   0.1000000), wk =   0.0056497
        k(  201) = (   0.0000000  -0.1111111   0.1111111), wk =   0.0056497
        k(  202) = (   0.0000000  -0.1222222   0.1222222), wk =   0.0056497
        k(  203) = (   0.0000000  -0.1333333   0.1333333), wk =   0.0056497
        k(  204) = (   0.0000000  -0.1444444   0.1444444), wk =   0.0056497
        k(  205) = (   0.0000000  -0.1555556   0.1555556), wk =   0.0056497
        k(  206) = (   0.0000000  -0.1666667   0.1666667), wk =   0.0056497
        k(  207) = (   0.0000000  -0.1777778   0.1777778), wk =   0.0056497
        k(  208) = (   0.0000000  -0.1888889   0.1888889), wk =   0.0056497
        k(  209) = (   0.0000000  -0.2000000   0.2000000), wk =   0.0056497
        k(  210) = (   0.0000000  -0.2111111   0.2111111), wk =   0.0056497
        k(  211) = (   0.0000000  -0.2222222   0.2222222), wk =   0.0056497
        k(  212) = (   0.0000000  -0.2333333   0.2333333), wk =   0.0056497
        k(  213) = (   0.0000000  -0.2444444   0.2444444), wk =   0.0056497
        k(  214) = (   0.0000000  -0.2555556   0.2555556), wk =   0.0056497
        k(  215) = (   0.0000000  -0.2666667   0.2666667), wk =   0.0056497
        k(  216) = (   0.0000000  -0.2777778   0.2777778), wk =   0.0056497
        k(  217) = (   0.0000000  -0.2888889   0.2888889), wk =   0.0056497
        k(  218) = (   0.0000000  -0.3000000   0.3000000), wk =   0.0056497
        k(  219) = (   0.0000000  -0.3111111   0.3111111), wk =   0.0056497
        k(  220) = (   0.0000000  -0.3222222   0.3222222), wk =   0.0056497
        k(  221) = (   0.0000000  -0.3333333   0.3333333), wk =   0.0056497
        k(  222) = (   0.0000000  -0.3444444   0.3444444), wk =   0.0056497
        k(  223) = (   0.0000000  -0.3555556   0.3555556), wk =   0.0056497
        k(  224) = (   0.0000000  -0.3666667   0.3666667), wk =   0.0056497
        k(  225) = (   0.0000000  -0.3777778   0.3777778), wk =   0.0056497
        k(  226) = (   0.0000000  -0.3888889   0.3888889), wk =   0.0056497
        k(  227) = (   0.0000000  -0.4000000   0.4000000), wk =   0.0056497
        k(  228) = (   0.0000000  -0.4111111   0.4111111), wk =   0.0056497
        k(  229) = (   0.0000000  -0.4222222   0.4222222), wk =   0.0056497
        k(  230) = (   0.0000000  -0.4333333   0.4333333), wk =   0.0056497
        k(  231) = (   0.0000000  -0.4444444   0.4444444), wk =   0.0056497
        k(  232) = (   0.0000000  -0.4555556   0.4555556), wk =   0.0056497
        k(  233) = (   0.0000000  -0.4666667   0.4666667), wk =   0.0056497
        k(  234) = (   0.0000000  -0.4777778   0.4777778), wk =   0.0056497
        k(  235) = (   0.0000000  -0.4888889   0.4888889), wk =   0.0056497
        k(  236) = (   0.0000000  -0.5000000   0.5000000), wk =   0.0056497
        k(  237) = (  -0.5000000   0.0000000   0.5000000), wk =   0.0056497
        k(  238) = (  -0.4907407   0.0000000   0.4907407), wk =   0.0056497
        k(  239) = (  -0.4814815  -0.0000000   0.4814815), wk =   0.0056497
        k(  240) = (  -0.4722222   0.0000000   0.4722222), wk =   0.0056497
        k(  241) = (  -0.4629630   0.0000000   0.4629630), wk =   0.0056497
        k(  242) = (  -0.4537037  -0.0000000   0.4537037), wk =   0.0056497
        k(  243) = (  -0.4444444  -0.0000000   0.4444444), wk =   0.0056497
        k(  244) = (  -0.4351852   0.0000000   0.4351852), wk =   0.0056497
        k(  245) = (  -0.4259259   0.0000000   0.4259259), wk =   0.0056497
        k(  246) = (  -0.4166667  -0.0000000   0.4166667), wk =   0.0056497
        k(  247) = (  -0.4074074  -0.0000000   0.4074074), wk =   0.0056497
        k(  248) = (  -0.3981481   0.0000000   0.3981481), wk =   0.0056497
        k(  249) = (  -0.3888889   0.0000000   0.3888889), wk =   0.0056497
        k(  250) = (  -0.3796296  -0.0000000   0.3796296), wk =   0.0056497
        k(  251) = (  -0.3703704  -0.0000000   0.3703704), wk =   0.0056497
        k(  252) = (  -0.3611111   0.0000000   0.3611111), wk =   0.0056497
        k(  253) = (  -0.3518519   0.0000000   0.3518519), wk =   0.0056497
        k(  254) = (  -0.3425926   0.0000000   0.3425926), wk =   0.0056497
        k(  255) = (  -0.3333333  -0.0000000   0.3333333), wk =   0.0056497
        k(  256) = (  -0.3240741  -0.0000000   0.3240741), wk =   0.0056497
        k(  257) = (  -0.3148148   0.0000000   0.3148148), wk =   0.0056497
        k(  258) = (  -0.3055556   0.0000000   0.3055556), wk =   0.0056497
        k(  259) = (  -0.2962963  -0.0000000   0.2962963), wk =   0.0056497
        k(  260) = (  -0.2870370   0.0000000   0.2870370), wk =   0.0056497
        k(  261) = (  -0.2777778   0.0000000   0.2777778), wk =   0.0056497
        k(  262) = (  -0.2685185   0.0000000   0.2685185), wk =   0.0056497
        k(  263) = (  -0.2592593   0.0000000   0.2592593), wk =   0.0056497
        k(  264) = (  -0.2500000   0.0000000   0.2500000), wk =   0.0056497
        k(  265) = (  -0.2407407   0.0000000   0.2407407), wk =   0.0056497
        k(  266) = (  -0.2314815   0.0000000   0.2314815), wk =   0.0056497
        k(  267) = (  -0.2222222  -0.0000000   0.2222222), wk =   0.0056497
        k(  268) = (  -0.2129630   0.0000000   0.2129630), wk =   0.0056497
        k(  269) = (  -0.2037037  -0.0000000   0.2037037), wk =   0.0056497
        k(  270) = (  -0.1944444   0.0000000   0.1944444), wk =   0.0056497
        k(  271) = (  -0.1851852  -0.0000000   0.1851852), wk =   0.0056497
        k(  272) = (  -0.1759259   0.0000000   0.1759259), wk =   0.0056497
        k(  273) = (  -0.1666667  -0.0000000   0.1666667), wk =   0.0056497
        k(  274) = (  -0.1574074   0.0000000   0.1574074), wk =   0.0056497
        k(  275) = (  -0.1481481   0.0000000   0.1481481), wk =   0.0056497
        k(  276) = (  -0.1388889   0.0000000   0.1388889), wk =   0.0056497
        k(  277) = (  -0.1296296  -0.0000000   0.1296296), wk =   0.0056497
        k(  278) = (  -0.1203704   0.0000000   0.1203704), wk =   0.0056497
        k(  279) = (  -0.1111111  -0.0000000   0.1111111), wk =   0.0056497
        k(  280) = (  -0.1018519   0.0000000   0.1018519), wk =   0.0056497
        k(  281) = (  -0.0925926  -0.0000000   0.0925926), wk =   0.0056497
        k(  282) = (  -0.0833333  -0.0000000   0.0833333), wk =   0.0056497
        k(  283) = (  -0.0740741   0.0000000   0.0740741), wk =   0.0056497
        k(  284) = (  -0.0648148  -0.0000000   0.0648148), wk =   0.0056497
        k(  285) = (  -0.0555556  -0.0000000   0.0555556), wk =   0.0056497
        k(  286) = (  -0.0462963  -0.0000000   0.0462963), wk =   0.0056497
        k(  287) = (  -0.0370370  -0.0000000   0.0370370), wk =   0.0056497
        k(  288) = (  -0.0277778  -0.0000000   0.0277778), wk =   0.0056497
        k(  289) = (  -0.0185185  -0.0000000   0.0185185), wk =   0.0056497
        k(  290) = (  -0.0092593  -0.0000000   0.0092593), wk =   0.0056497
        k(  291) = (   0.0000000   0.0000000   0.0000000), wk =   0.0056497
        k(  292) = (   0.0079365  -0.0079365   0.0000000), wk =   0.0056497
        k(  293) = (   0.0158730  -0.0158730  -0.0000000), wk =   0.0056497
        k(  294) = (   0.0238095  -0.0238095   0.0000000), wk =   0.0056497
        k(  295) = (   0.0317460  -0.0317460   0.0000000), wk =   0.0056497
        k(  296) = (   0.0396825  -0.0396825  -0.0000000), wk =   0.0056497
        k(  297) = (   0.0476190  -0.0476190   0.0000000), wk =   0.0056497
        k(  298) = (   0.0555556  -0.0555556  -0.0000000), wk =   0.0056497
        k(  299) = (   0.0634921  -0.0634921   0.0000000), wk =   0.0056497
        k(  300) = (   0.0714286  -0.0714286   0.0000000), wk =   0.0056497
        k(  301) = (   0.0793651  -0.0793651  -0.0000000), wk =   0.0056497
        k(  302) = (   0.0873016  -0.0873016  -0.0000000), wk =   0.0056497
        k(  303) = (   0.0952381  -0.0952381   0.0000000), wk =   0.0056497
        k(  304) = (   0.1031746  -0.1031746   0.0000000), wk =   0.0056497
        k(  305) = (   0.1111111  -0.1111111  -0.0000000), wk =   0.0056497
        k(  306) = (   0.1190476  -0.1190476   0.0000000), wk =   0.0056497
        k(  307) = (   0.1269841  -0.1269841   0.0000000), wk =   0.0056497
        k(  308) = (   0.1349206  -0.1349206   0.0000000), wk =   0.0056497
        k(  309) = (   0.1428571  -0.1428571   0.0000000), wk =   0.0056497
        k(  310) = (   0.1507937  -0.1507937   0.0000000), wk =   0.0056497
        k(  311) = (   0.1587302  -0.1587302   0.0000000), wk =   0.0056497
        k(  312) = (   0.1666667  -0.1666667   0.0000000), wk =   0.0056497
        k(  313) = (   0.1746032  -0.1746032  -0.0000000), wk =   0.0056497
        k(  314) = (   0.1825397  -0.1825397  -0.0000000), wk =   0.0056497
        k(  315) = (   0.1904762  -0.1904762   0.0000000), wk =   0.0056497
        k(  316) = (   0.1984127  -0.1984127   0.0000000), wk =   0.0056497
        k(  317) = (   0.2063492  -0.2063492   0.0000000), wk =   0.0056497
        k(  318) = (   0.2142857  -0.2142857  -0.0000000), wk =   0.0056497
        k(  319) = (   0.2222222  -0.2222222  -0.0000000), wk =   0.0056497
        k(  320) = (   0.2301587  -0.2301587   0.0000000), wk =   0.0056497
        k(  321) = (   0.2380952  -0.2380952   0.0000000), wk =   0.0056497
        k(  322) = (   0.2460317  -0.2460317  -0.0000000), wk =   0.0056497
        k(  323) = (   0.2539683  -0.2539683   0.0000000), wk =   0.0056497
        k(  324) = (   0.2619048  -0.2619048   0.0000000), wk =   0.0056497
        k(  325) = (   0.2698413  -0.2698413   0.0000000), wk =   0.0056497
        k(  326) = (   0.2777778  -0.2777778  -0.0000000), wk =   0.0056497
        k(  327) = (   0.2857143  -0.2857143   0.0000000), wk =   0.0056497
        k(  328) = (   0.2936508  -0.2936508   0.0000000), wk =   0.0056497
        k(  329) = (   0.3015873  -0.3015873   0.0000000), wk =   0.0056497
        k(  330) = (   0.3095238  -0.3095238  -0.0000000), wk =   0.0056497
        k(  331) = (   0.3174603  -0.3174603  -0.0000000), wk =   0.0056497
        k(  332) = (   0.3253968  -0.3253968  -0.0000000), wk =   0.0056497
        k(  333) = (   0.3333333  -0.3333333   0.0000000), wk =   0.0056497
        k(  334) = (   0.3412698  -0.3412698  -0.0000000), wk =   0.0056497
        k(  335) = (   0.3492063  -0.3492063  -0.0000000), wk =   0.0056497
        k(  336) = (   0.3571429  -0.3571429   0.0000000), wk =   0.0056497
        k(  337) = (   0.3650794  -0.3650794   0.0000000), wk =   0.0056497
        k(  338) = (   0.3730159  -0.3730159  -0.0000000), wk =   0.0056497
        k(  339) = (   0.3809524  -0.3809524   0.0000000), wk =   0.0056497
        k(  340) = (   0.3888889  -0.3888889   0.0000000), wk =   0.0056497
        k(  341) = (   0.3968254  -0.3968254   0.0000000), wk =   0.0056497
        k(  342) = (   0.4047619  -0.4047619   0.0000000), wk =   0.0056497
        k(  343) = (   0.4126984  -0.4126984   0.0000000), wk =   0.0056497
        k(  344) = (   0.4206349  -0.4206349  -0.0000000), wk =   0.0056497
        k(  345) = (   0.4285714  -0.4285714  -0.0000000), wk =   0.0056497
        k(  346) = (   0.4365079  -0.4365079  -0.0000000), wk =   0.0056497
        k(  347) = (   0.4444444  -0.4444444  -0.0000000), wk =   0.0056497
        k(  348) = (   0.4523810  -0.4523810   0.0000000), wk =   0.0056497
        k(  349) = (   0.4603175  -0.4603175  -0.0000000), wk =   0.0056497
        k(  350) = (   0.4682540  -0.4682540  -0.0000000), wk =   0.0056497
        k(  351) = (   0.4761905  -0.4761905   0.0000000), wk =   0.0056497
        k(  352) = (   0.4841270  -0.4841270   0.0000000), wk =   0.0056497
        k(  353) = (   0.4920635  -0.4920635  -0.0000000), wk =   0.0056497
        k(  354) = (   0.5000000  -0.5000000  -0.0000000), wk =   0.0056497

     Dense  grid:    34067 G-vectors     FFT dimensions: (  36,  48,  48)

     Smooth grid:     8599 G-vectors     FFT dimensions: (  24,  30,  30)

     Dynamical RAM for                 wfc:       0.36 MB

     Dynamical RAM for     wfc (w. buffer):       0.36 MB

     Dynamical RAM for           str. fact:       1.04 MB

     Dynamical RAM for           local pot:       0.00 MB

     Dynamical RAM for          nlocal pot:       0.82 MB

     Dynamical RAM for                qrad:       3.59 MB

     Dynamical RAM for          rho,v,vnew:       3.46 MB

     Dynamical RAM for           G-vectors:       2.01 MB

     Dynamical RAM for          h,s,v(r/c):       0.09 MB

     Dynamical RAM for          <psi|beta>:       0.02 MB

     Dynamical RAM for                 psi:       0.72 MB

     Dynamical RAM for                hpsi:       0.72 MB

     Dynamical RAM for                spsi:       0.72 MB

     Dynamical RAM for      wfcinit/wfcrot:       0.97 MB

     Dynamical RAM for           addusdens:      98.77 MB

     Estimated static dynamical RAM per process >      16.01 MB

     Estimated max dynamical RAM per process >     114.77 MB

     Check: negative core charge=   -0.000047

     The potential is recalculated from file :
     ./out/aiida.save/charge-density

     Starting wfcs are   29 randomized atomic wfcs

     Band Structure Calculation
     Davidson diagonalization with overlap

     Computing kpt #:     1  of   354
     total cpu time spent up to now is        3.7 secs

     Computing kpt #:     2  of   354
     total cpu time spent up to now is        4.2 secs

     Computing kpt #:     3  of   354
     total cpu time spent up to now is        4.7 secs

     Computing kpt #:     4  of   354
     total cpu time spent up to now is        5.3 secs

     Computing kpt #:     5  of   354
     total cpu time spent up to now is        5.8 secs

     Computing kpt #:     6  of   354
     total cpu time spent up to now is        6.3 secs

     Computing kpt #:     7  of   354
     total cpu time spent up to now is        6.9 secs

     Computing kpt #:     8  of   354
     total cpu time spent up to now is        7.4 secs

     Computing kpt #:     9  of   354
     total cpu time spent up to now is        8.0 secs

     Computing kpt #:    10  of   354
     total cpu time spent up to now is        8.5 secs

     Computing kpt #:    11  of   354
     total cpu time spent up to now is        9.1 secs

     Computing kpt #:    12  of   354
     total cpu time spent up to now is        9.7 secs

     Computing kpt #:    13  of   354
     total cpu time spent up to now is       10.2 secs

     Computing kpt #:    14  of   354
     total cpu time spent up to now is       10.8 secs

     Computing kpt #:    15  of   354
     total cpu time spent up to now is       11.4 secs

     Computing kpt #:    16  of   354
     total cpu time spent up to now is       12.0 secs

     Computing kpt #:    17  of   354
     total cpu time spent up to now is       12.5 secs

     Computing kpt #:    18  of   354
     total cpu time spent up to now is       13.1 secs

     Computing kpt #:    19  of   354
     total cpu time spent up to now is       13.7 secs

     Computing kpt #:    20  of   354
     total cpu time spent up to now is       14.3 secs

     Computing kpt #:    21  of   354
     total cpu time spent up to now is       14.9 secs

     Computing kpt #:    22  of   354
     total cpu time spent up to now is       15.5 secs

     Computing kpt #:    23  of   354
     total cpu time spent up to now is       16.1 secs

     Computing kpt #:    24  of   354
     total cpu time spent up to now is       16.7 secs

     Computing kpt #:    25  of   354
     total cpu time spent up to now is       17.3 secs

     Computing kpt #:    26  of   354
     total cpu time spent up to now is       17.9 secs

     Computing kpt #:    27  of   354
     total cpu time spent up to now is       18.5 secs

     Computing kpt #:    28  of   354
     total cpu time spent up to now is       19.2 secs

     Computing kpt #:    29  of   354
     total cpu time spent up to now is       19.8 secs

     Computing kpt #:    30  of   354
     total cpu time spent up to now is       20.4 secs

     Computing kpt #:    31  of   354
     total cpu time spent up to now is       21.0 secs

     Computing kpt #:    32  of   354
     total cpu time spent up to now is       21.7 secs

     Computing kpt #:    33  of   354
     total cpu time spent up to now is       22.3 secs

     Computing kpt #:    34  of   354
     total cpu time spent up to now is       23.0 secs

     Computing kpt #:    35  of   354
     total cpu time spent up to now is       23.6 secs

     Computing kpt #:    36  of   354
     total cpu time spent up to now is       24.2 secs

     Computing kpt #:    37  of   354
     total cpu time spent up to now is       24.9 secs

     Computing kpt #:    38  of   354
     total cpu time spent up to now is       25.5 secs

     Computing kpt #:    39  of   354
     total cpu time spent up to now is       26.1 secs

     Computing kpt #:    40  of   354
     total cpu time spent up to now is       26.7 secs

     Computing kpt #:    41  of   354
     total cpu time spent up to now is       27.3 secs

     Computing kpt #:    42  of   354
     total cpu time spent up to now is       27.9 secs

     Computing kpt #:    43  of   354
     total cpu time spent up to now is       28.4 secs

     Computing kpt #:    44  of   354
     total cpu time spent up to now is       29.0 secs

     Computing kpt #:    45  of   354
     total cpu time spent up to now is       29.6 secs

     Computing kpt #:    46  of   354
     total cpu time spent up to now is       30.1 secs

     Computing kpt #:    47  of   354
     total cpu time spent up to now is       30.7 secs

     Computing kpt #:    48  of   354
     total cpu time spent up to now is       31.3 secs

     Computing kpt #:    49  of   354
     total cpu time spent up to now is       31.8 secs

     Computing kpt #:    50  of   354
     total cpu time spent up to now is       32.4 secs

     Computing kpt #:    51  of   354
     total cpu time spent up to now is       32.9 secs

     Computing kpt #:    52  of   354
     total cpu time spent up to now is       33.5 secs

     Computing kpt #:    53  of   354
     total cpu time spent up to now is       34.0 secs

     Computing kpt #:    54  of   354
     total cpu time spent up to now is       34.6 secs

     Computing kpt #:    55  of   354
     total cpu time spent up to now is       35.1 secs

     Computing kpt #:    56  of   354
     total cpu time spent up to now is       35.6 secs

     Computing kpt #:    57  of   354
     total cpu time spent up to now is       36.2 secs

     Computing kpt #:    58  of   354
     total cpu time spent up to now is       36.8 secs

     Computing kpt #:    59  of   354
     total cpu time spent up to now is       37.3 secs

     Computing kpt #:    60  of   354
     total cpu time spent up to now is       37.9 secs

     Computing kpt #:    61  of   354
     total cpu time spent up to now is       38.5 secs

     Computing kpt #:    62  of   354
     total cpu time spent up to now is       39.0 secs

     Computing kpt #:    63  of   354
     total cpu time spent up to now is       39.6 secs

     Computing kpt #:    64  of   354
     total cpu time spent up to now is       40.2 secs

     Computing kpt #:    65  of   354
     total cpu time spent up to now is       40.8 secs

     Computing kpt #:    66  of   354
     total cpu time spent up to now is       41.3 secs

     Computing kpt #:    67  of   354
     total cpu time spent up to now is       41.9 secs

     Computing kpt #:    68  of   354
     total cpu time spent up to now is       42.5 secs

     Computing kpt #:    69  of   354
     total cpu time spent up to now is       43.1 secs

     Computing kpt #:    70  of   354
     total cpu time spent up to now is       43.7 secs

     Computing kpt #:    71  of   354
     total cpu time spent up to now is       44.3 secs

     Computing kpt #:    72  of   354
     total cpu time spent up to now is       44.8 secs

     Computing kpt #:    73  of   354
     total cpu time spent up to now is       45.4 secs

     Computing kpt #:    74  of   354
     total cpu time spent up to now is       46.0 secs

     Computing kpt #:    75  of   354
     total cpu time spent up to now is       46.6 secs

     Computing kpt #:    76  of   354
     total cpu time spent up to now is       47.2 secs

     Computing kpt #:    77  of   354
     total cpu time spent up to now is       47.8 secs

     Computing kpt #:    78  of   354
     total cpu time spent up to now is       48.4 secs

     Computing kpt #:    79  of   354
     total cpu time spent up to now is       49.0 secs

     Computing kpt #:    80  of   354
     total cpu time spent up to now is       49.6 secs

     Computing kpt #:    81  of   354
     total cpu time spent up to now is       50.2 secs

     Computing kpt #:    82  of   354
     total cpu time spent up to now is       50.8 secs

     Computing kpt #:    83  of   354
     total cpu time spent up to now is       51.3 secs

     Computing kpt #:    84  of   354
     total cpu time spent up to now is       51.9 secs

     Computing kpt #:    85  of   354
     total cpu time spent up to now is       52.5 secs

     Computing kpt #:    86  of   354
     total cpu time spent up to now is       53.1 secs

     Computing kpt #:    87  of   354
     total cpu time spent up to now is       53.7 secs

     Computing kpt #:    88  of   354
     total cpu time spent up to now is       54.2 secs

     Computing kpt #:    89  of   354
     total cpu time spent up to now is       54.8 secs

     Computing kpt #:    90  of   354
     total cpu time spent up to now is       55.4 secs

     Computing kpt #:    91  of   354
     total cpu time spent up to now is       55.9 secs

     Computing kpt #:    92  of   354
     total cpu time spent up to now is       56.5 secs

     Computing kpt #:    93  of   354
     total cpu time spent up to now is       57.0 secs

     Computing kpt #:    94  of   354
     total cpu time spent up to now is       57.6 secs

     Computing kpt #:    95  of   354
     total cpu time spent up to now is       58.2 secs

     Computing kpt #:    96  of   354
     total cpu time spent up to now is       58.8 secs

     Computing kpt #:    97  of   354
     total cpu time spent up to now is       59.3 secs

     Computing kpt #:    98  of   354
     total cpu time spent up to now is       59.9 secs

     Computing kpt #:    99  of   354
     total cpu time spent up to now is       60.5 secs

     Computing kpt #:   100  of   354
     total cpu time spent up to now is       61.1 secs

     Computing kpt #:   101  of   354
     total cpu time spent up to now is       61.7 secs

     Computing kpt #:   102  of   354
     total cpu time spent up to now is       62.3 secs

     Computing kpt #:   103  of   354
     total cpu time spent up to now is       63.0 secs

     Computing kpt #:   104  of   354
     total cpu time spent up to now is       63.6 secs

     Computing kpt #:   105  of   354
     total cpu time spent up to now is       64.2 secs

     Computing kpt #:   106  of   354
     total cpu time spent up to now is       64.8 secs

     Computing kpt #:   107  of   354
     total cpu time spent up to now is       65.4 secs

     Computing kpt #:   108  of   354
     total cpu time spent up to now is       66.1 secs

     Computing kpt #:   109  of   354
     total cpu time spent up to now is       66.7 secs

     Computing kpt #:   110  of   354
     total cpu time spent up to now is       67.3 secs

     Computing kpt #:   111  of   354
     total cpu time spent up to now is       68.0 secs

     Computing kpt #:   112  of   354
     total cpu time spent up to now is       68.6 secs

     Computing kpt #:   113  of   354
     total cpu time spent up to now is       69.2 secs

     Computing kpt #:   114  of   354
     total cpu time spent up to now is       69.9 secs

     Computing kpt #:   115  of   354
     total cpu time spent up to now is       70.5 secs

     Computing kpt #:   116  of   354
     total cpu time spent up to now is       71.2 secs

     Computing kpt #:   117  of   354
     total cpu time spent up to now is       71.8 secs

     Computing kpt #:   118  of   354
     total cpu time spent up to now is       72.5 secs

     Computing kpt #:   119  of   354
     total cpu time spent up to now is       73.1 secs

     Computing kpt #:   120  of   354
     total cpu time spent up to now is       73.8 secs

     Computing kpt #:   121  of   354
     total cpu time spent up to now is       74.4 secs

     Computing kpt #:   122  of   354
     total cpu time spent up to now is       75.0 secs

     Computing kpt #:   123  of   354
     total cpu time spent up to now is       75.7 secs

     Computing kpt #:   124  of   354
     total cpu time spent up to now is       76.3 secs

     Computing kpt #:   125  of   354
     total cpu time spent up to now is       76.9 secs

     Computing kpt #:   126  of   354
     total cpu time spent up to now is       77.6 secs

     Computing kpt #:   127  of   354
     total cpu time spent up to now is       78.2 secs

     Computing kpt #:   128  of   354
     total cpu time spent up to now is       78.8 secs

     Computing kpt #:   129  of   354
     total cpu time spent up to now is       79.4 secs

     Computing kpt #:   130  of   354
     total cpu time spent up to now is       79.9 secs

     Computing kpt #:   131  of   354
     total cpu time spent up to now is       80.5 secs

     Computing kpt #:   132  of   354
     total cpu time spent up to now is       81.0 secs

     Computing kpt #:   133  of   354
     total cpu time spent up to now is       81.6 secs

     Computing kpt #:   134  of   354
     total cpu time spent up to now is       82.2 secs

     Computing kpt #:   135  of   354
     total cpu time spent up to now is       82.8 secs

     Computing kpt #:   136  of   354
     total cpu time spent up to now is       83.4 secs

     Computing kpt #:   137  of   354
     total cpu time spent up to now is       84.0 secs

     Computing kpt #:   138  of   354
     total cpu time spent up to now is       84.6 secs

     Computing kpt #:   139  of   354
     total cpu time spent up to now is       85.2 secs

     Computing kpt #:   140  of   354
     total cpu time spent up to now is       85.8 secs

     Computing kpt #:   141  of   354
     total cpu time spent up to now is       86.4 secs

     Computing kpt #:   142  of   354
     total cpu time spent up to now is       87.0 secs

     Computing kpt #:   143  of   354
     total cpu time spent up to now is       87.6 secs

     Computing kpt #:   144  of   354
     total cpu time spent up to now is       88.2 secs

     Computing kpt #:   145  of   354
     total cpu time spent up to now is       88.8 secs

     Computing kpt #:   146  of   354
     total cpu time spent up to now is       89.4 secs

     Computing kpt #:   147  of   354
     total cpu time spent up to now is       90.1 secs

     Computing kpt #:   148  of   354
     total cpu time spent up to now is       90.7 secs

     Computing kpt #:   149  of   354
     total cpu time spent up to now is       91.3 secs

     Computing kpt #:   150  of   354
     total cpu time spent up to now is       91.9 secs

     Computing kpt #:   151  of   354
     total cpu time spent up to now is       92.5 secs

     Computing kpt #:   152  of   354
     total cpu time spent up to now is       93.1 secs

     Computing kpt #:   153  of   354
     total cpu time spent up to now is       93.8 secs

     Computing kpt #:   154  of   354
     total cpu time spent up to now is       94.4 secs

     Computing kpt #:   155  of   354
     total cpu time spent up to now is       95.0 secs

     Computing kpt #:   156  of   354
     total cpu time spent up to now is       95.6 secs

     Computing kpt #:   157  of   354
     total cpu time spent up to now is       96.2 secs

     Computing kpt #:   158  of   354
     total cpu time spent up to now is       96.8 secs

     Computing kpt #:   159  of   354
     total cpu time spent up to now is       97.5 secs

     Computing kpt #:   160  of   354
     total cpu time spent up to now is       98.1 secs

     Computing kpt #:   161  of   354
     total cpu time spent up to now is       98.7 secs

     Computing kpt #:   162  of   354
     total cpu time spent up to now is       99.3 secs

     Computing kpt #:   163  of   354
     total cpu time spent up to now is      100.0 secs

     Computing kpt #:   164  of   354
     total cpu time spent up to now is      100.6 secs

     Computing kpt #:   165  of   354
     total cpu time spent up to now is      101.2 secs

     Computing kpt #:   166  of   354
     total cpu time spent up to now is      101.8 secs

     Computing kpt #:   167  of   354
     total cpu time spent up to now is      102.5 secs

     Computing kpt #:   168  of   354
     total cpu time spent up to now is      103.1 secs

     Computing kpt #:   169  of   354
     total cpu time spent up to now is      103.7 secs

     Computing kpt #:   170  of   354
     total cpu time spent up to now is      104.3 secs

     Computing kpt #:   171  of   354
     total cpu time spent up to now is      105.0 secs

     Computing kpt #:   172  of   354
     total cpu time spent up to now is      105.6 secs

     Computing kpt #:   173  of   354
     total cpu time spent up to now is      106.2 secs

     Computing kpt #:   174  of   354
     total cpu time spent up to now is      106.8 secs

     Computing kpt #:   175  of   354
     total cpu time spent up to now is      107.4 secs

     Computing kpt #:   176  of   354
     total cpu time spent up to now is      108.0 secs

     Computing kpt #:   177  of   354
     total cpu time spent up to now is      108.7 secs

     Computing kpt #:   178  of   354
     total cpu time spent up to now is      109.3 secs

     Computing kpt #:   179  of   354
     total cpu time spent up to now is      109.9 secs

     Computing kpt #:   180  of   354
     total cpu time spent up to now is      110.5 secs

     Computing kpt #:   181  of   354
     total cpu time spent up to now is      111.1 secs

     Computing kpt #:   182  of   354
     total cpu time spent up to now is      111.7 secs

     Computing kpt #:   183  of   354
     total cpu time spent up to now is      112.3 secs

     Computing kpt #:   184  of   354
     total cpu time spent up to now is      112.9 secs

     Computing kpt #:   185  of   354
     total cpu time spent up to now is      113.5 secs

     Computing kpt #:   186  of   354
     total cpu time spent up to now is      114.1 secs

     Computing kpt #:   187  of   354
     total cpu time spent up to now is      114.7 secs

     Computing kpt #:   188  of   354
     total cpu time spent up to now is      115.3 secs

     Computing kpt #:   189  of   354
     total cpu time spent up to now is      115.9 secs

     Computing kpt #:   190  of   354
     total cpu time spent up to now is      116.4 secs

     Computing kpt #:   191  of   354
     total cpu time spent up to now is      117.0 secs

     Computing kpt #:   192  of   354
     total cpu time spent up to now is      117.6 secs

     Computing kpt #:   193  of   354
     total cpu time spent up to now is      118.1 secs

     Computing kpt #:   194  of   354
     total cpu time spent up to now is      118.7 secs

     Computing kpt #:   195  of   354
     total cpu time spent up to now is      119.3 secs

     Computing kpt #:   196  of   354
     total cpu time spent up to now is      119.9 secs

     Computing kpt #:   197  of   354
     total cpu time spent up to now is      120.5 secs

     Computing kpt #:   198  of   354
     total cpu time spent up to now is      121.1 secs

     Computing kpt #:   199  of   354
     total cpu time spent up to now is      121.8 secs

     Computing kpt #:   200  of   354
     total cpu time spent up to now is      122.4 secs

     Computing kpt #:   201  of   354
     total cpu time spent up to now is      123.0 secs

     Computing kpt #:   202  of   354
     total cpu time spent up to now is      123.6 secs

[...]

   -66.5626 -32.9572 -32.7072 -32.4797  -7.5528   0.2854   1.8056   6.5659
     9.0229  11.2386  11.8806  12.8863  14.8061  15.3388  17.2621  18.0618
    18.4510  20.1197  21.3765  26.1274  26.1517  26.5891

          k =-0.0079 0.0058 0.0013 (  1085 PWs)   bands (ev):

   -66.5626 -32.9573 -32.7073 -32.4800  -7.5514   0.2812   1.8101   6.5665
     9.0196  11.2334  11.8880  12.8850  14.7897  15.3499  17.2441  18.0773
    18.4600  20.1169  21.3773  26.1179  26.1600  26.5871

          k =-0.0159 0.0116 0.0026 (  1084 PWs)   bands (ev):

   -66.5625 -32.9573 -32.7074 -32.4805  -7.5470   0.2691   1.8235   6.5685
     9.0114  11.2189  11.9099  12.8813  14.7456  15.3783  17.1961  18.1184
    18.4881  20.1087  21.3798  26.0995  26.1755  26.5815

          k =-0.0238 0.0174 0.0039 (  1086 PWs)   bands (ev):

   -66.5624 -32.9573 -32.7076 -32.4814  -7.5398   0.2492   1.8452   6.5716
     8.9974  11.1975  11.9437  12.8749  14.6826  15.4137  17.1313  18.1707
    18.5371  20.0951  21.3840  26.0760  26.1929  26.5733

          k =-0.0317 0.0232 0.0052 (  1085 PWs)   bands (ev):

   -66.5622 -32.9571 -32.7079 -32.4826  -7.5296   0.2224   1.8746   6.5761
     8.9777  11.1723  11.9863  12.8653  14.6088  15.4464  17.0625  18.2237
    18.6073  20.0761  21.3901  26.0467  26.2115  26.5647

          k =-0.0397 0.0290 0.0065 (  1084 PWs)   bands (ev):

   -66.5619 -32.9571 -32.7082 -32.4841  -7.5166   0.1895   1.9107   6.5820
     8.9526  11.1457  12.0350  12.8521  14.5292  15.4688  16.9998  18.2729
    18.6954  20.0521  21.3982  26.0101  26.2298  26.5584

          k =-0.0476 0.0348 0.0078 (  1083 PWs)   bands (ev):

   -66.5616 -32.9570 -32.7087 -32.4858  -7.5007   0.1513   1.9525   6.5891
     8.9223  11.1199  12.0870  12.8346  14.4476  15.4751  16.9506  18.3191
    18.7957  20.0232  21.4086  25.9653  26.2461  26.5577

          k =-0.0556 0.0406 0.0091 (  1081 PWs)   bands (ev):

   -66.5612 -32.9569 -32.7091 -32.4878  -7.4820   0.1088   1.9990   6.5975
     8.8869  11.0964  12.1408  12.8124  14.3659  15.4622  16.9195  18.3645
    18.9027  19.9898  21.4215  25.9114  26.2580  26.5660

          k =-0.0635 0.0463 0.0104 (  1081 PWs)   bands (ev):

   -66.5608 -32.9568 -32.7097 -32.4902  -7.4604   0.0627   2.0494   6.6072
     8.8471  11.0762  12.1948  12.7848  14.2855  15.4296  16.9081  18.4111
    19.0117  19.9522  21.4371  25.8484  26.2639  26.5855

          k =-0.0714 0.0521 0.0117 (  1080 PWs)   bands (ev):

   -66.5603 -32.9566 -32.7104 -32.4929  -7.4361   0.0137   2.1027   6.6181
     8.8035  11.0597  12.2474  12.7517  14.2074  15.3794  16.9152  18.4602
    19.1198  19.9107  21.4555  25.7765  26.2638  26.6166

          k =-0.0794 0.0579 0.0130 (  1079 PWs)   bands (ev):

   -66.5598 -32.9565 -32.7112 -32.4957  -7.4090  -0.0375   2.1582   6.6303
     8.7565  11.0471  12.2970  12.7135  14.1317  15.3161  16.9375  18.5127
    19.2247  19.8661  21.4769  25.6966  26.2585  26.6580

          k =-0.0873 0.0637 0.0143 (  1078 PWs)   bands (ev):

   -66.5592 -32.9564 -32.7121 -32.4988  -7.3792  -0.0905   2.2152   6.6436
     8.7068  11.0384  12.3417  12.6717  14.0580  15.2444  16.9713  18.5688
    19.3248  19.8189  21.5014  25.6097  26.2495  26.7076

          k =-0.0952 0.0695 0.0156 (  1077 PWs)   bands (ev):

   -66.5586 -32.9562 -32.7132 -32.5022  -7.3467  -0.1447   2.2731   6.6581
     8.6556  11.0329  12.3771  12.6306  13.9855  15.1693  17.0126  18.6288
    19.4180  19.7704  21.5290  25.5172  26.2381  26.7637

          k =-0.1032 0.0753 0.0169 (  1077 PWs)   bands (ev):

   -66.5579 -32.9561 -32.7145 -32.5057  -7.3115  -0.2000   2.3312   6.6736
     8.6030  11.0301  12.3937  12.6002  13.9129  15.0949  17.0581  18.6925
    19.5014  19.7234  21.5595  25.4204  26.2249  26.8246

          k =-0.1111 0.0811 0.0182 (  1078 PWs)   bands (ev):

   -66.5572 -32.9560 -32.7159 -32.5093  -7.2738  -0.2560   2.3891   6.6899
     8.5501  11.0289  12.3790  12.5938  13.8391  15.0246  17.1050  18.7597
    19.5631  19.6901  21.5927  25.3207  26.2104  26.8891

          k =-0.1190 0.0869 0.0195 (  1080 PWs)   bands (ev):

   -66.5565 -32.9560 -32.7176 -32.5131  -7.2335  -0.3123   2.4464   6.7069
     8.4977  11.0278  12.3357  12.6102  13.7628  14.9610  17.1514  18.8299
    19.5652  19.7088  21.6282  25.2196  26.1950  26.9561

          k =-0.1270 0.0927 0.0208 (  1080 PWs)   bands (ev):

   -66.5558 -32.9559 -32.7193 -32.5169  -7.1907  -0.3689   2.5027   6.7243
     8.4473  11.0259  12.2779  12.6372  13.6838  14.9054  17.1958  18.9023
    19.5235  19.7645  21.6657  25.1185  26.1789  27.0245

          k =-0.1349 0.0985 0.0221 (  1079 PWs)   bands (ev):

   -66.5549 -32.9558 -32.7212 -32.5208  -7.1454  -0.4257   2.5578   6.7419
     8.3997  11.0205  12.2157  12.6668  13.6023  14.8585  17.2371  18.9760
    19.4724  19.8240  21.7043  25.0189  26.1620  27.0935

          k =-0.1429 0.1043 0.0234 (  1079 PWs)   bands (ev):

   -66.5541 -32.9557 -32.7235 -32.5246  -7.0976  -0.4825   2.6111   6.7593
     8.3556  11.0096  12.1547  12.6946  13.5192  14.8201  17.2738  19.0489
    19.4207  19.8806  21.7435  24.9220  26.1444  27.1625

          k =-0.1508 0.1101 0.0247 (  1075 PWs)   bands (ev):

   -66.5531 -32.9555 -32.7258 -32.5284  -7.0475  -0.5390   2.6625   6.7758
     8.3165  10.9910  12.0991  12.7185  13.4369  14.7895  17.3059  19.1173
    19.3732  19.9335  21.7827  24.8296  26.1263  27.2307

          k =-0.1587 0.1159 0.0260 (  1073 PWs)   bands (ev):

   -66.5522 -32.9555 -32.7283 -32.5322  -6.9952  -0.5956   2.7117   6.7908
     8.2831  10.9618  12.0520  12.7350  13.3587  14.7653  17.3320  19.1696
    19.3415  19.9827  21.8210  24.7426  26.1075  27.2971

          k =-0.1667 0.1217 0.0273 (  1074 PWs)   bands (ev):

   -66.5513 -32.9555 -32.7312 -32.5359  -6.9407  -0.6521   2.7586   6.8038
     8.2564  10.9204  12.0153  12.7408  13.2883  14.7463  17.3517  19.1793
    19.3516  20.0288  21.8576  24.6624  26.0880  27.3613

          k =-0.1746 0.1275 0.0286 (  1076 PWs)   bands (ev):

   -66.5503 -32.9556 -32.7344 -32.5395  -6.8840  -0.7084   2.8031   6.8140
     8.2377  10.8658  11.9897  12.7321  13.2312  14.7315  17.3650  19.1485
    19.4008  20.0726  21.8920  24.5901  26.0678  27.4228

          k =-0.1825 0.1333 0.0299 (  1074 PWs)   bands (ev):

   -66.5493 -32.9557 -32.7376 -32.5430  -6.8252  -0.7647   2.8452   6.8208
     8.2282  10.7991  11.9752  12.7054  13.1931  14.7197  17.3717  19.1037
    19.4617  20.1149  21.9238  24.5269  26.0470  27.4812

          k =-0.1905 0.1390 0.0312 (  1073 PWs)   bands (ev):

   -66.5483 -32.9559 -32.7412 -32.5464  -6.7644  -0.8209   2.8850   6.8238
     8.2282  10.7209  11.9696  12.6608  13.1739  14.7103  17.3721  19.0554
    19.5231  20.1565  21.9524  24.4734  26.0255  27.5360

          k =-0.1984 0.1448 0.0325 (  1075 PWs)   bands (ev):

   -66.5472 -32.9561 -32.7450 -32.5496  -6.7017  -0.8772   2.9224   6.8226
     8.2383  10.6332  11.9703  12.6028  13.1705  14.7021  17.3654  19.0064
    19.5815  20.1980  21.9774  24.4303  26.0034  27.5871

          k =-0.2063 0.1506 0.0338 (  1072 PWs)   bands (ev):

   -66.5461 -32.9564 -32.7490 -32.5526  -6.6371  -0.9334   2.9577   6.8170
     8.2588  10.5380  11.9740  12.5384  13.1791  14.6955  17.3529  18.9577
    19.6355  20.2401  21.9989  24.3977  25.9806  27.6344

          k =-0.2143 0.1564 0.0351 (  1071 PWs)   bands (ev):

   -66.5450 -32.9567 -32.7532 -32.5554  -6.5706  -0.9898   2.9910   6.8069
     8.2896  10.4371  11.9762  12.4737  13.1953  14.6890  17.3340  18.9095
    19.6844  20.2830  22.0170  24.3756  25.9574  27.6777

          k =-0.2222 0.1622 0.0364 (  1073 PWs)   bands (ev):

   -66.5440 -32.9573 -32.7577 -32.5580  -6.5026  -1.0464   3.0223   6.7924
     8.3300  10.3321  11.9724  12.4148  13.2159  14.6830  17.3085  18.8620
    19.7276  20.3269  22.0318  24.3634  25.9336  27.7173

          k =-0.2302 0.1680 0.0377 (  1070 PWs)   bands (ev):

   -66.5429 -32.9579 -32.7622 -32.5602  -6.4328  -1.1033   3.0522   6.7740
     8.3803  10.2245  11.9576  12.3679  13.2398  14.6776  17.2779  18.8152
    19.7656  20.3720  22.0436  24.3605  25.9097  27.7533

          k =-0.2381 0.1738 0.0390 (  1070 PWs)   bands (ev):

   -66.5417 -32.9587 -32.7669 -32.5624  -6.3615  -1.1605   3.0808   6.7520
     8.4392  10.1153  11.9275  12.3358  13.2655  14.6722  17.2418  18.7691
    19.7984  20.4181  22.0524  24.3656  25.8857  27.7860

          k =-0.2460 0.1796 0.0403 (  1071 PWs)   bands (ev):

   -66.5406 -32.9596 -32.7716 -32.5644  -6.2886  -1.2183   3.1083   6.7268
     8.5054  10.0056  11.8824  12.3185  13.2924  14.6671  17.2008  18.7238
    19.8266  20.4653  22.0591  24.3774  25.8619  27.8157

          k =-0.2540 0.1854 0.0416 (  1070 PWs)   bands (ev):

   -66.5395 -32.9605 -32.7765 -32.5661  -6.2144  -1.2766   3.1352   6.6990
     8.5787   9.8965  11.8263  12.3121  13.3201  14.6628  17.1555  18.6795
    19.8506  20.5135  22.0638  24.3942  25.8387  27.8428

          k =-0.2619 0.1912 0.0429 (  1069 PWs)   bands (ev):

   -66.5384 -32.9617 -32.7813 -32.5676  -6.1387  -1.3355   3.1616   6.6688
     8.6577   9.7889  11.7633  12.3117  13.3477  14.6594  17.1059  18.6363
    19.8708  20.5625  22.0667  24.4142  25.8167  27.8676

          k =-0.2698 0.1970 0.0442 (  1072 PWs)   bands (ev):

   -66.5373 -32.9632 -32.7862 -32.5690  -6.0620  -1.3952   3.1881   6.6365
     8.7406   9.6841  11.6963  12.3138  13.3743  14.6571  17.0521  18.5946
    19.8875  20.6123  22.0680  24.4356  25.7961  27.8904

          k =-0.2778 0.2028 0.0454 (  1071 PWs)   bands (ev):

   -66.5362 -32.9647 -32.7909 -32.5702  -5.9840  -1.4557   3.2150   6.6024
     8.8256   9.5841  11.6288  12.3159  13.4003  14.6560  16.9955  18.5548
    19.9014  20.6630  22.0680  24.4565  25.7777  27.9116

          k =-0.2857 0.2086 0.0467 (  1073 PWs)   bands (ev):

   -66.5352 -32.9663 -32.7957 -32.5713  -5.9048  -1.5172   3.2426   6.5666
     8.9083   9.4924  11.5604  12.3164  13.4249  14.6563  16.9362  18.5173
    19.9127  20.7145  22.0666  24.4750  25.7618  27.9315

          k =-0.2937 0.2144 0.0480 (  1075 PWs)   bands (ev):

   -66.5341 -32.9681 -32.8003 -32.5722  -5.8247  -1.5796   3.2712   6.5291
     8.9798   9.4178  11.4932  12.3145  13.4474  14.6586  16.8740  18.4825
    19.9217  20.7667  22.0641  24.4895  25.7490  27.9503

          k =-0.3016 0.2202 0.0493 (  1075 PWs)   bands (ev):

   -66.5330 -32.9702 -32.8047 -32.5730  -5.7435  -1.6430   3.3010   6.4902
     9.0204   9.3800  11.4284  12.3097  13.4671  14.6633  16.8095  18.4507
    19.9289  20.8194  22.0606  24.4988  25.7396  27.9682

          k =-0.3095 0.2259 0.0506 (  1074 PWs)   bands (ev):

   -66.5320 -32.9724 -32.8089 -32.5735  -5.6615  -1.7075   3.3326   6.4498
     9.0076   9.4008  11.3659  12.3018  13.4840  14.6703  16.7432  18.4222
    19.9343  20.8726  22.0561  24.5018  25.7338  27.9855

          k =-0.3175 0.2317 0.0519 (  1074 PWs)   bands (ev):

   -66.5309 -32.9748 -32.8129 -32.5740  -5.5787  -1.7731   3.3659   6.4078
     8.9520   9.4689  11.3061  12.2910  13.4976  14.6794  16.6752  18.3974
    19.9383  20.9260  22.0504  24.4981  25.7313  28.0021

          k =-0.3254 0.2375 0.0532 (  1074 PWs)   bands (ev):

   -66.5299 -32.9773 -32.8167 -32.5744  -5.4951  -1.8399   3.4014   6.3644
     8.8781   9.5595  11.2492  12.2776  13.5078  14.6907  16.6060  18.3762
    19.9411  20.9793  22.0438  24.4877  25.7319  28.0184

          k =-0.3333 0.2433 0.0545 (  1072 PWs)   bands (ev):

   -66.5290 -32.9801 -32.8201 -32.5747  -5.4107  -1.9080   3.4392   6.3195
     8.7982   9.6598  11.1962  12.2621  13.5146  14.7037  16.5360  18.3588
    19.9431  21.0323  22.0361  24.4711  25.7350  28.0343

          k =-0.3413 0.2491 0.0558 (  1074 PWs)   bands (ev):

   -66.5280 -32.9829 -32.8234 -32.5750  -5.3258  -1.9773   3.4793   6.2728
     8.7174   9.7634  11.1459  12.2449  13.5173  14.7186  16.4648  18.3450
    19.9442  21.0846  22.0274  24.4492  25.7399  28.0497

          k =-0.3492 0.2549 0.0571 (  1073 PWs)   bands (ev):

   -66.5271 -32.9858 -32.8265 -32.5752  -5.2404  -2.0478   3.5219   6.2244
     8.6376   9.8679  11.1003  12.2267  13.5165  14.7353  16.3938  18.3346
    19.9449  21.1360  22.0177  24.4229  25.7460  28.0647

          k =-0.3571 0.2607 0.0584 (  1075 PWs)   bands (ev):

   -66.5263 -32.9888 -32.8293 -32.5753  -5.1545  -2.1194   3.5670   6.1743
     8.5600   9.9705  11.0580  12.2083  13.5121  14.7532  16.3229  18.3273
    19.9453  21.1862  22.0068  24.3934  25.7529  28.0789

          k =-0.3651 0.2665 0.0597 (  1073 PWs)   bands (ev):

   -66.5254 -32.9918 -32.8319 -32.5753  -5.0680  -2.1923   3.6149   6.1227
     8.4854  10.0700  11.0213  12.1907  13.5048  14.7723  16.2528  18.3228
    19.9455  21.2348  21.9952  24.3619  25.7601  28.0925

          k =-0.3730 0.2723 0.0610 (  1070 PWs)   bands (ev):

   -66.5245 -32.9948 -32.8341 -32.5752  -4.9812  -2.2663   3.6655   6.0691
     8.4141  10.1638  10.9906  12.1747  13.4942  14.7924  16.1834  18.3205
    19.9457  21.2816  21.9827  24.3296  25.7672  28.1049

          k =-0.3810 0.2781 0.0623 (  1068 PWs)   bands (ev):

   -66.5237 -32.9978 -32.8362 -32.5751  -4.8941  -2.3414   3.7184   6.0137
     8.3464  10.2499  10.9669  12.1614  13.4804  14.8127  16.1150  18.3200
    19.9461  21.3263  21.9695  24.2974  25.7742  28.1160

          k =-0.3889 0.2839 0.0636 (  1071 PWs)   bands (ev):

   -66.5230 -33.0009 -32.8381 -32.5752  -4.8068  -2.4177   3.7738   5.9564
     8.2824  10.3248  10.9512  12.1518  13.4634  14.8325  16.0476  18.3207
    19.9468  21.3685  21.9555  24.2663  25.7809  28.1254

          k =-0.3968 0.2897 0.0649 (  1071 PWs)   bands (ev):

   -66.5223 -33.0040 -32.8397 -32.5750  -4.7192  -2.4950   3.8316   5.8974
     8.2224  10.3868  10.9456  12.1474  13.4441  14.8527  15.9822  18.3222
    19.9479  21.4083  21.9408  24.2372  25.7873  28.1333

          k =-0.4048 0.2955 0.0662 (  1073 PWs)   bands (ev):

   -66.5217 -33.0069 -32.8413 -32.5750  -4.6314  -2.5734   3.8913   5.8368
     8.1665  10.4331  10.9503  12.1487  13.4219  14.8733  15.9187  18.3240
    19.9495  21.4454  21.9255  24.2105  25.7934  28.1393

          k =-0.4127 0.3013 0.0675 (  1073 PWs)   bands (ev):

   -66.5211 -33.0096 -32.8426 -32.5749  -4.5435  -2.6527   3.9531   5.7749
     8.1147  10.4643  10.9645  12.1571  13.3975  14.8940  15.8577  18.3258
    19.9515  21.4798  21.9099  24.1866  25.7994  28.1434

          k =-0.4206 0.3071 0.0688 (  1073 PWs)   bands (ev):

   -66.5205 -33.0122 -32.8438 -32.5748  -4.4555  -2.7329   4.0165   5.7119
     8.0672  10.4823  10.9855  12.1730  13.3707  14.9147  15.7992  18.3272
    19.9540  21.5115  21.8941  24.1658  25.8052  28.1457

          k =-0.4286 0.3129 0.0701 (  1074 PWs)   bands (ev):

   -66.5200 -33.0147 -32.8449 -32.5747  -4.3675  -2.8139   4.0808   5.6476
     8.0240  10.4897  11.0094  12.1963  13.3417  14.9359  15.7434  18.3282
    19.9570  21.5405  21.8780  24.1482  25.8108  28.1463

          k =-0.4365 0.3186 0.0714 (  1075 PWs)   bands (ev):

   -66.5196 -33.0170 -32.8458 -32.5746  -4.2794  -2.8958   4.1458   5.5831
     7.9853  10.4909  11.0330  12.2267  13.3109  14.9557  15.6909  18.3285
    19.9603  21.5670  21.8622  24.1335  25.8163  28.1452

          k =-0.4444 0.3244 0.0727 (  1075 PWs)   bands (ev):

   -66.5192 -33.0190 -32.8466 -32.5745  -4.1915  -2.9783   4.2107   5.5189
     7.9510  10.4882  11.0539  12.2629  13.2789  14.9756  15.6420  18.3282
    19.9637  21.5911  21.8465  24.1218  25.8215  28.1431

          k =-0.4524 0.3302 0.0740 (  1074 PWs)   bands (ev):

   -66.5188 -33.0208 -32.8472 -32.5744  -4.1036  -3.0615   4.2746   5.4558
     7.9211  10.4835  11.0714  12.3036  13.2462  14.9949  15.5971  18.3275
    19.9673  21.6129  21.8312  24.1126  25.8264  28.1401

          k =-0.4603 0.3360 0.0753 (  1074 PWs)   bands (ev):

   -66.5185 -33.0223 -32.8477 -32.5743  -4.0160  -3.1453   4.3362   5.3949
     7.8959  10.4781  11.0849  12.3457  13.2134  15.0136  15.5566  18.3263
    19.9706  21.6325  21.8165  24.1057  25.8310  28.1366

          k =-0.4683 0.3418 0.0766 (  1075 PWs)   bands (ev):

   -66.5183 -33.0236 -32.8482 -32.5743  -3.9287  -3.2294   4.3939   5.3380
     7.8752  10.4723  11.0950  12.3877  13.1820  15.0299  15.5211  18.3250
    19.9737  21.6500  21.8025  24.1006  25.8349  28.1330

          k =-0.4762 0.3476 0.0779 (  1077 PWs)   bands (ev):

   -66.5181 -33.0247 -32.8486 -32.5742  -3.8420  -3.3137   4.4448   5.2875
     7.8590  10.4674  11.1020  12.4254  13.1536  15.0444  15.4916  18.3237
    19.9763  21.6652  21.7896  24.0970  25.8382  28.1297

          k =-0.4841 0.3534 0.0792 (  1077 PWs)   bands (ev):

   -66.5180 -33.0254 -32.8488 -32.5742  -3.7564  -3.3975   4.4860   5.2468
     7.8475  10.4639  11.1065  12.4561  13.1305  15.0562  15.4694  18.3226
    19.9782  21.6778  21.7786  24.0947  25.8406  28.1271

          k =-0.4921 0.3592 0.0805 (  1078 PWs)   bands (ev):

   -66.5179 -33.0259 -32.8489 -32.5742  -3.6745  -3.4784   4.5128   5.2198
     7.8405  10.4616  11.1091  12.4763  13.1151  15.0638  15.4554  18.3218
    19.9795  21.6866  21.7707  24.0935  25.8421  28.1255

          k =-0.5000 0.3650 0.0818 (  1078 PWs)   bands (ev):

   -66.5179 -33.0261 -32.8490 -32.5742  -3.6220  -3.5305   4.5223   5.2104
     7.8382  10.4609  11.1099  12.4834  13.1098  15.0664  15.4507  18.3216
    19.9799  21.6899  21.7678  24.0931  25.8427  28.1249

     Writing output data file ./out/aiida.save/

     init_run     :      1.81s CPU      1.93s WALL (       1 calls)
     electrons    :    427.61s CPU    215.83s WALL (       1 calls)

     Called by init_run:
     wfcinit      :      0.00s CPU      0.00s WALL (       1 calls)
     wfcinit:atom :      0.23s CPU      0.11s WALL (     354 calls)
     wfcinit:wfcr :     10.07s CPU      5.39s WALL (     354 calls)
     potinit      :      0.39s CPU      0.64s WALL (       1 calls)
     hinit0       :      1.11s CPU      0.92s WALL (       1 calls)

     Called by electrons:
     c_bands      :    427.60s CPU    215.82s WALL (       1 calls)
     v_of_rho     :      0.06s CPU      0.09s WALL (       1 calls)
     v_h          :      0.00s CPU      0.00s WALL (       1 calls)
     v_xc         :      0.06s CPU      0.09s WALL (       1 calls)
     newd         :      0.22s CPU      0.27s WALL (       1 calls)
     PAW_pot      :      0.27s CPU      0.42s WALL (       1 calls)

     Called by c_bands:
     init_us_2    :      0.24s CPU      0.12s WALL (     354 calls)
     cegterg      :    414.78s CPU    208.85s WALL (    1152 calls)

     Called by sum_band:

     Called by *egterg:
     cdiaghg      :     24.48s CPU     12.54s WALL (   20298 calls)
     cegterg:over :     16.07s CPU      7.99s WALL (   19944 calls)
     cegterg:upda :      8.70s CPU      4.50s WALL (   19944 calls)
     cegterg:last :     22.23s CPU     11.13s WALL (   16251 calls)
     h_psi        :    337.40s CPU    170.11s WALL (   21450 calls)
     s_psi        :      9.48s CPU      4.71s WALL (   21450 calls)
     g_psi        :      3.00s CPU      1.47s WALL (   19944 calls)

     Called by h_psi:
     h_psi:calbec :     10.77s CPU      5.54s WALL (   21450 calls)
     vloc_psi     :    316.19s CPU    159.23s WALL (   21450 calls)
     add_vuspsi   :      9.61s CPU      4.87s WALL (   21450 calls)

     General routines
     calbec       :     10.73s CPU      5.52s WALL (   21450 calls)
     fft          :      0.04s CPU      0.08s WALL (      13 calls)
     ffts         :      0.00s CPU      0.00s WALL (       1 calls)
     fftw         :    291.59s CPU    146.34s WALL (  759330 calls)
     interpolate  :      0.00s CPU      0.00s WALL (       1 calls)
     davcio       :      0.28s CPU      0.30s WALL (     708 calls)


     PAW routines
     PAW_pot      :      0.27s CPU      0.42s WALL (       1 calls)

     PWSCF        :   7m10.45s CPU   3m38.80s WALL


   This run was terminated on:  13:57: 0  26Jul2020            

=------------------------------------------------------------------------------=
   JOB DONE.
=------------------------------------------------------------------------------=
