
     Program PWSCF v.6.5 starts on 19Apr2020 at 11:33:50 

     This program is part of the open-source Quantum ESPRESSO suite
     for quantum simulation of materials; please cite
         "P. Giannozzi et al., J. Phys.:Condens. Matter 21 395502 (2009);
         "P. Giannozzi et al., J. Phys.:Condens. Matter 29 465901 (2017);
          URL http://www.quantum-espresso.org", 
     in publications or presentations arising from this work. More details at
     http://www.quantum-espresso.org/quote

     Serial version
     Fft bands division:     nmany     =       1
     Reading input from scf.in

     Current dimensions of program PWSCF are:
     Max number of different atomic species (ntypx) = 10
     Max number of k-points (npk) =  40000
     Max angular momentum in pseudopotentials (lmaxx) =  3
               file Fe.pbe-spn-kjpaw_psl.0.2.1.UPF: wavefunction(s)  3D renormalized
     Message from routine setup:
     using ibrav=0 with symmetry is DISCOURAGED, use correct ibrav instead
 
     G-vector sticks info
     --------------------
     sticks:   dense  smooth     PW     G-vecs:    dense   smooth      PW
     Sum        1207     485    157                34067     8599    1617
 


     bravais-lattice index     =            0
     lattice parameter (alat)  =       4.6247  a.u.
     unit-cell volume          =     180.3269 (a.u.)^3
     number of atoms/cell      =            5
     number of atomic types    =            2
     number of electrons       =        36.00
     number of Kohn-Sham states=           22
     kinetic-energy cutoff     =      50.0000  Ry
     charge density cutoff     =     500.0000  Ry
     convergence threshold     =      1.0E-09
     mixing beta               =       0.4000
     number of iterations used =            8  plain     mixing
     Exchange-correlation= PBE
                           (   1   4   3   4   0   0   0)

     celldm(1)=   4.624727  celldm(2)=   0.000000  celldm(3)=   0.000000
     celldm(4)=   0.000000  celldm(5)=   0.000000  celldm(6)=   0.000000

     crystal axes: (cart. coord. in units of alat)
               a(1) = (  -1.000000   0.000000   0.000000 )  
               a(2) = (  -0.034383  -1.416982   0.000000 )  
               a(3) = (   0.494744   0.389367   1.286583 )  

     reciprocal axes: (cart. coord. in units 2 pi/alat)
               b(1) = ( -1.000000  0.024265  0.377198 )  
               b(2) = (  0.000000 -0.705725  0.213578 )  
               b(3) = (  0.000000  0.000000  0.777252 )  


     PseudoPot. # 1 for Fe read from file:
     ./pseudo/Fe.pbe-spn-kjpaw_psl.0.2.1.UPF
     MD5 check sum: e86618425769142926afa95317d90200
     Pseudo is Projector augmented-wave + core cor, Zval = 16.0
     Generated using "atomic" code by A. Dal Corso v.5.0.99 svn rev. 10869
     Shape of augmentation charge: PSQ
     Using radial grid of 1191 points,  6 beta functions with: 
                l(1) =   0
                l(2) =   0
                l(3) =   1
                l(4) =   1
                l(5) =   2
                l(6) =   2
     Q(r) pseudized with 0 coefficients 


     PseudoPot. # 2 for N  read from file:
     ./pseudo/N.pbe-n-radius_5.UPF
     MD5 check sum: 16739722b17309cd8fe442a2ace49922
     Pseudo is Ultrasoft + core correction, Zval =  5.0
     Generated using "atomic" code by A. Dal Corso v.5.1
     Using radial grid of 1085 points,  4 beta functions with: 
                l(1) =   0
                l(2) =   0
                l(3) =   1
                l(4) =   1
     Q(r) pseudized with 0 coefficients 


     atomic species   valence    mass     pseudopotential
        Fe            16.00    55.84500     Fe( 1.00)
        N              5.00    14.00670     N ( 1.00)

      2 Sym. Ops., with inversion, found


                                    s                        frac. trans.

      isym =  1     identity                                     

 cryst.   s( 1) = (     1          0          0      )
                  (     0          1          0      )
                  (     0          0          1      )

 cart.    s( 1) = (  1.0000000  0.0000000  0.0000000 )
                  (  0.0000000  1.0000000  0.0000000 )
                  (  0.0000000  0.0000000  1.0000000 )


      isym =  2     inversion                                    

 cryst.   s( 2) = (    -1          0          0      )
                  (     0         -1          0      )
                  (     0          0         -1      )

 cart.    s( 2) = ( -1.0000000 -0.0000000 -0.0000000 )
                  (  0.0000000 -1.0000000 -0.0000000 )
                  (  0.0000000  0.0000000 -1.0000000 )


   Cartesian axes

     site n.     atom                  positions (alat units)
         1           Fe  tau(   1) = (   0.5000000   0.0000000   0.0000000  )
         2           N   tau(   2) = (   0.6144374   1.1155488   0.6239930  )
         3           N   tau(   3) = (   0.9146898   0.6907994   0.6625905  )
         4           N   tau(   4) = (   0.5237334   1.3143789   1.1077483  )
         5           N   tau(   5) = (   1.0053938   0.4919693   0.1788351  )

   Crystallographic axes

     site n.     atom                  positions (cryst. coord.)
         1           Fe  tau(   1) = ( -0.5000000  0.0000000  0.0000000  )
         2           N   tau(   2) = ( -0.3520000 -0.6540000  0.4850000  )
         3           N   tau(   3) = ( -0.6480000 -0.3460000  0.5150000  )
         4           N   tau(   4) = ( -0.0740000 -0.6910000  0.8610000  )
         5           N   tau(   5) = ( -0.9260000 -0.3090000  0.1390000  )

     number of k points=   246  Marzari-Vanderbilt smearing, width (Ry)=  0.0220
                       cart. coord. in units 2pi/alat
        k(    1) = (   0.0000000   0.0000000   0.0000000), wk =   0.0040816
        k(    2) = (   0.0000000   0.0000000   0.1110360), wk =   0.0081633
        k(    3) = (   0.0000000   0.0000000   0.2220721), wk =   0.0081633
        k(    4) = (   0.0000000   0.0000000   0.3331081), wk =   0.0081633
        k(    5) = (   0.0000000  -0.1008179   0.0305111), wk =   0.0081633
        k(    6) = (   0.0000000  -0.1008179   0.1415472), wk =   0.0081633
        k(    7) = (   0.0000000  -0.1008179   0.2525832), wk =   0.0081633
        k(    8) = (   0.0000000  -0.1008179   0.3636193), wk =   0.0081633
        k(    9) = (   0.0000000  -0.1008179  -0.3025970), wk =   0.0081633
        k(   10) = (   0.0000000  -0.1008179  -0.1915610), wk =   0.0081633
        k(   11) = (   0.0000000  -0.1008179  -0.0805249), wk =   0.0081633
        k(   12) = (   0.0000000  -0.2016358   0.0610223), wk =   0.0081633
        k(   13) = (   0.0000000  -0.2016358   0.1720583), wk =   0.0081633
        k(   14) = (   0.0000000  -0.2016358   0.2830944), wk =   0.0081633
        k(   15) = (   0.0000000  -0.2016358   0.3941304), wk =   0.0081633
        k(   16) = (   0.0000000  -0.2016358  -0.2720859), wk =   0.0081633
        k(   17) = (   0.0000000  -0.2016358  -0.1610498), wk =   0.0081633
        k(   18) = (   0.0000000  -0.2016358  -0.0500138), wk =   0.0081633
        k(   19) = (   0.0000000  -0.3024538   0.0915334), wk =   0.0081633
        k(   20) = (   0.0000000  -0.3024538   0.2025695), wk =   0.0081633
        k(   21) = (   0.0000000  -0.3024538   0.3136055), wk =   0.0081633
        k(   22) = (   0.0000000  -0.3024538   0.4246416), wk =   0.0081633
        k(   23) = (   0.0000000  -0.3024538  -0.2415747), wk =   0.0081633
        k(   24) = (   0.0000000  -0.3024538  -0.1305387), wk =   0.0081633
        k(   25) = (   0.0000000  -0.3024538  -0.0195026), wk =   0.0081633
        k(   26) = (  -0.1000000   0.0024265   0.0377198), wk =   0.0081633
        k(   27) = (  -0.1000000   0.0024265   0.1487558), wk =   0.0081633
        k(   28) = (  -0.1000000   0.0024265   0.2597919), wk =   0.0081633
        k(   29) = (  -0.1000000   0.0024265   0.3708279), wk =   0.0081633
        k(   30) = (  -0.1000000   0.0024265  -0.2953884), wk =   0.0081633
        k(   31) = (  -0.1000000   0.0024265  -0.1843523), wk =   0.0081633
        k(   32) = (  -0.1000000   0.0024265  -0.0733163), wk =   0.0081633
        k(   33) = (  -0.1000000  -0.0983914   0.0682309), wk =   0.0081633
        k(   34) = (  -0.1000000  -0.0983914   0.1792670), wk =   0.0081633
        k(   35) = (  -0.1000000  -0.0983914   0.2903030), wk =   0.0081633
        k(   36) = (  -0.1000000  -0.0983914   0.4013391), wk =   0.0081633
        k(   37) = (  -0.1000000  -0.0983914  -0.2648772), wk =   0.0081633
        k(   38) = (  -0.1000000  -0.0983914  -0.1538412), wk =   0.0081633
        k(   39) = (  -0.1000000  -0.0983914  -0.0428051), wk =   0.0081633
        k(   40) = (  -0.1000000  -0.1992094   0.0987421), wk =   0.0081633
        k(   41) = (  -0.1000000  -0.1992094   0.2097781), wk =   0.0081633
        k(   42) = (  -0.1000000  -0.1992094   0.3208142), wk =   0.0081633
        k(   43) = (  -0.1000000  -0.1992094   0.4318502), wk =   0.0081633
        k(   44) = (  -0.1000000  -0.1992094  -0.2343661), wk =   0.0081633
        k(   45) = (  -0.1000000  -0.1992094  -0.1233300), wk =   0.0081633
        k(   46) = (  -0.1000000  -0.1992094  -0.0122940), wk =   0.0081633
        k(   47) = (  -0.1000000  -0.3000273   0.1292532), wk =   0.0081633
        k(   48) = (  -0.1000000  -0.3000273   0.2402892), wk =   0.0081633
        k(   49) = (  -0.1000000  -0.3000273   0.3513253), wk =   0.0081633
        k(   50) = (  -0.1000000  -0.3000273   0.4623613), wk =   0.0081633
        k(   51) = (  -0.1000000  -0.3000273  -0.2038550), wk =   0.0081633
        k(   52) = (  -0.1000000  -0.3000273  -0.0928189), wk =   0.0081633
        k(   53) = (  -0.1000000  -0.3000273   0.0182171), wk =   0.0081633
        k(   54) = (  -0.1000000   0.3048802  -0.0538136), wk =   0.0081633
        k(   55) = (  -0.1000000   0.3048802   0.0572224), wk =   0.0081633
        k(   56) = (  -0.1000000   0.3048802   0.1682585), wk =   0.0081633
        k(   57) = (  -0.1000000   0.3048802   0.2792945), wk =   0.0081633
        k(   58) = (  -0.1000000   0.3048802  -0.3869218), wk =   0.0081633
        k(   59) = (  -0.1000000   0.3048802  -0.2758857), wk =   0.0081633
        k(   60) = (  -0.1000000   0.3048802  -0.1648497), wk =   0.0081633
        k(   61) = (  -0.1000000   0.2040623  -0.0233025), wk =   0.0081633
        k(   62) = (  -0.1000000   0.2040623   0.0877335), wk =   0.0081633
        k(   63) = (  -0.1000000   0.2040623   0.1987696), wk =   0.0081633
        k(   64) = (  -0.1000000   0.2040623   0.3098056), wk =   0.0081633
        k(   65) = (  -0.1000000   0.2040623  -0.3564107), wk =   0.0081633
        k(   66) = (  -0.1000000   0.2040623  -0.2453746), wk =   0.0081633
        k(   67) = (  -0.1000000   0.2040623  -0.1343386), wk =   0.0081633
        k(   68) = (  -0.1000000   0.1032444   0.0072086), wk =   0.0081633
        k(   69) = (  -0.1000000   0.1032444   0.1182447), wk =   0.0081633
        k(   70) = (  -0.1000000   0.1032444   0.2292807), wk =   0.0081633
        k(   71) = (  -0.1000000   0.1032444   0.3403168), wk =   0.0081633
        k(   72) = (  -0.1000000   0.1032444  -0.3258995), wk =   0.0081633
        k(   73) = (  -0.1000000   0.1032444  -0.2148635), wk =   0.0081633
        k(   74) = (  -0.1000000   0.1032444  -0.1038274), wk =   0.0081633
        k(   75) = (  -0.2000000   0.0048530   0.0754395), wk =   0.0081633
        k(   76) = (  -0.2000000   0.0048530   0.1864756), wk =   0.0081633
        k(   77) = (  -0.2000000   0.0048530   0.2975116), wk =   0.0081633
        k(   78) = (  -0.2000000   0.0048530   0.4085477), wk =   0.0081633
        k(   79) = (  -0.2000000   0.0048530  -0.2576686), wk =   0.0081633
        k(   80) = (  -0.2000000   0.0048530  -0.1466325), wk =   0.0081633
        k(   81) = (  -0.2000000   0.0048530  -0.0355965), wk =   0.0081633
        k(   82) = (  -0.2000000  -0.0959650   0.1059507), wk =   0.0081633
        k(   83) = (  -0.2000000  -0.0959650   0.2169867), wk =   0.0081633
        k(   84) = (  -0.2000000  -0.0959650   0.3280228), wk =   0.0081633
        k(   85) = (  -0.2000000  -0.0959650   0.4390588), wk =   0.0081633
        k(   86) = (  -0.2000000  -0.0959650  -0.2271575), wk =   0.0081633
        k(   87) = (  -0.2000000  -0.0959650  -0.1161214), wk =   0.0081633
        k(   88) = (  -0.2000000  -0.0959650  -0.0050854), wk =   0.0081633
        k(   89) = (  -0.2000000  -0.1967829   0.1364618), wk =   0.0081633
        k(   90) = (  -0.2000000  -0.1967829   0.2474979), wk =   0.0081633
        k(   91) = (  -0.2000000  -0.1967829   0.3585339), wk =   0.0081633
        k(   92) = (  -0.2000000  -0.1967829   0.4695700), wk =   0.0081633
        k(   93) = (  -0.2000000  -0.1967829  -0.1966463), wk =   0.0081633
        k(   94) = (  -0.2000000  -0.1967829  -0.0856103), wk =   0.0081633
        k(   95) = (  -0.2000000  -0.1967829   0.0254258), wk =   0.0081633
        k(   96) = (  -0.2000000  -0.2976008   0.1669730), wk =   0.0081633
        k(   97) = (  -0.2000000  -0.2976008   0.2780090), wk =   0.0081633
        k(   98) = (  -0.2000000  -0.2976008   0.3890451), wk =   0.0081633
        k(   99) = (  -0.2000000  -0.2976008   0.5000811), wk =   0.0081633
        k(  100) = (  -0.2000000  -0.2976008  -0.1661352), wk =   0.0081633
        k(  101) = (  -0.2000000  -0.2976008  -0.0550991), wk =   0.0081633
        k(  102) = (  -0.2000000  -0.2976008   0.0559369), wk =   0.0081633
        k(  103) = (  -0.2000000   0.3073067  -0.0160939), wk =   0.0081633
        k(  104) = (  -0.2000000   0.3073067   0.0949422), wk =   0.0081633
        k(  105) = (  -0.2000000   0.3073067   0.2059782), wk =   0.0081633
        k(  106) = (  -0.2000000   0.3073067   0.3170143), wk =   0.0081633
        k(  107) = (  -0.2000000   0.3073067  -0.3492020), wk =   0.0081633
        k(  108) = (  -0.2000000   0.3073067  -0.2381660), wk =   0.0081633
        k(  109) = (  -0.2000000   0.3073067  -0.1271299), wk =   0.0081633
        k(  110) = (  -0.2000000   0.2064888   0.0144173), wk =   0.0081633
        k(  111) = (  -0.2000000   0.2064888   0.1254533), wk =   0.0081633
        k(  112) = (  -0.2000000   0.2064888   0.2364894), wk =   0.0081633
        k(  113) = (  -0.2000000   0.2064888   0.3475254), wk =   0.0081633
        k(  114) = (  -0.2000000   0.2064888  -0.3186909), wk =   0.0081633
        k(  115) = (  -0.2000000   0.2064888  -0.2076548), wk =   0.0081633
        k(  116) = (  -0.2000000   0.2064888  -0.0966188), wk =   0.0081633
        k(  117) = (  -0.2000000   0.1056709   0.0449284), wk =   0.0081633
        k(  118) = (  -0.2000000   0.1056709   0.1559645), wk =   0.0081633
        k(  119) = (  -0.2000000   0.1056709   0.2670005), wk =   0.0081633
        k(  120) = (  -0.2000000   0.1056709   0.3780366), wk =   0.0081633
        k(  121) = (  -0.2000000   0.1056709  -0.2881797), wk =   0.0081633
        k(  122) = (  -0.2000000   0.1056709  -0.1771437), wk =   0.0081633
        k(  123) = (  -0.2000000   0.1056709  -0.0661076), wk =   0.0081633
        k(  124) = (  -0.3000000   0.0072795   0.1131593), wk =   0.0081633
        k(  125) = (  -0.3000000   0.0072795   0.2241954), wk =   0.0081633
        k(  126) = (  -0.3000000   0.0072795   0.3352314), wk =   0.0081633
        k(  127) = (  -0.3000000   0.0072795   0.4462675), wk =   0.0081633
        k(  128) = (  -0.3000000   0.0072795  -0.2199488), wk =   0.0081633
        k(  129) = (  -0.3000000   0.0072795  -0.1089128), wk =   0.0081633
        k(  130) = (  -0.3000000   0.0072795   0.0021233), wk =   0.0081633
        k(  131) = (  -0.3000000  -0.0935385   0.1436705), wk =   0.0081633
        k(  132) = (  -0.3000000  -0.0935385   0.2547065), wk =   0.0081633
        k(  133) = (  -0.3000000  -0.0935385   0.3657426), wk =   0.0081633
        k(  134) = (  -0.3000000  -0.0935385   0.4767786), wk =   0.0081633
        k(  135) = (  -0.3000000  -0.0935385  -0.1894377), wk =   0.0081633
        k(  136) = (  -0.3000000  -0.0935385  -0.0784016), wk =   0.0081633
        k(  137) = (  -0.3000000  -0.0935385   0.0326344), wk =   0.0081633
        k(  138) = (  -0.3000000  -0.1943564   0.1741816), wk =   0.0081633
        k(  139) = (  -0.3000000  -0.1943564   0.2852177), wk =   0.0081633
        k(  140) = (  -0.3000000  -0.1943564   0.3962537), wk =   0.0081633
        k(  141) = (  -0.3000000  -0.1943564   0.5072898), wk =   0.0081633
        k(  142) = (  -0.3000000  -0.1943564  -0.1589265), wk =   0.0081633
        k(  143) = (  -0.3000000  -0.1943564  -0.0478905), wk =   0.0081633
        k(  144) = (  -0.3000000  -0.1943564   0.0631456), wk =   0.0081633
        k(  145) = (  -0.3000000  -0.2951743   0.2046927), wk =   0.0081633
        k(  146) = (  -0.3000000  -0.2951743   0.3157288), wk =   0.0081633
        k(  147) = (  -0.3000000  -0.2951743   0.4267648), wk =   0.0081633
        k(  148) = (  -0.3000000  -0.2951743   0.5378009), wk =   0.0081633
        k(  149) = (  -0.3000000  -0.2951743  -0.1284154), wk =   0.0081633
        k(  150) = (  -0.3000000  -0.2951743  -0.0173794), wk =   0.0081633
        k(  151) = (  -0.3000000  -0.2951743   0.0936567), wk =   0.0081633
        k(  152) = (  -0.3000000   0.3097332   0.0216259), wk =   0.0081633
        k(  153) = (  -0.3000000   0.3097332   0.1326620), wk =   0.0081633
        k(  154) = (  -0.3000000   0.3097332   0.2436980), wk =   0.0081633
        k(  155) = (  -0.3000000   0.3097332   0.3547341), wk =   0.0081633
        k(  156) = (  -0.3000000   0.3097332  -0.3114822), wk =   0.0081633
        k(  157) = (  -0.3000000   0.3097332  -0.2004462), wk =   0.0081633
        k(  158) = (  -0.3000000   0.3097332  -0.0894101), wk =   0.0081633
        k(  159) = (  -0.3000000   0.2089153   0.0521370), wk =   0.0081633
        k(  160) = (  -0.3000000   0.2089153   0.1631731), wk =   0.0081633
        k(  161) = (  -0.3000000   0.2089153   0.2742091), wk =   0.0081633
        k(  162) = (  -0.3000000   0.2089153   0.3852452), wk =   0.0081633
        k(  163) = (  -0.3000000   0.2089153  -0.2809711), wk =   0.0081633
        k(  164) = (  -0.3000000   0.2089153  -0.1699351), wk =   0.0081633
        k(  165) = (  -0.3000000   0.2089153  -0.0588990), wk =   0.0081633
        k(  166) = (  -0.3000000   0.1080974   0.0826482), wk =   0.0081633
        k(  167) = (  -0.3000000   0.1080974   0.1936842), wk =   0.0081633
        k(  168) = (  -0.3000000   0.1080974   0.3047203), wk =   0.0081633
        k(  169) = (  -0.3000000   0.1080974   0.4157563), wk =   0.0081633
        k(  170) = (  -0.3000000   0.1080974  -0.2504600), wk =   0.0081633
        k(  171) = (  -0.3000000   0.1080974  -0.1394239), wk =   0.0081633
        k(  172) = (  -0.3000000   0.1080974  -0.0283879), wk =   0.0081633
        k(  173) = (  -0.4000000   0.0097059   0.1508791), wk =   0.0081633
        k(  174) = (  -0.4000000   0.0097059   0.2619151), wk =   0.0081633
        k(  175) = (  -0.4000000   0.0097059   0.3729512), wk =   0.0081633
        k(  176) = (  -0.4000000   0.0097059   0.4839872), wk =   0.0081633
        k(  177) = (  -0.4000000   0.0097059  -0.1822290), wk =   0.0081633
        k(  178) = (  -0.4000000   0.0097059  -0.0711930), wk =   0.0081633
        k(  179) = (  -0.4000000   0.0097059   0.0398430), wk =   0.0081633
        k(  180) = (  -0.4000000  -0.0911120   0.1813902), wk =   0.0081633
        k(  181) = (  -0.4000000  -0.0911120   0.2924263), wk =   0.0081633
        k(  182) = (  -0.4000000  -0.0911120   0.4034623), wk =   0.0081633
        k(  183) = (  -0.4000000  -0.0911120   0.5144984), wk =   0.0081633
        k(  184) = (  -0.4000000  -0.0911120  -0.1517179), wk =   0.0081633
        k(  185) = (  -0.4000000  -0.0911120  -0.0406819), wk =   0.0081633
        k(  186) = (  -0.4000000  -0.0911120   0.0703542), wk =   0.0081633
        k(  187) = (  -0.4000000  -0.1919299   0.2119014), wk =   0.0081633
        k(  188) = (  -0.4000000  -0.1919299   0.3229374), wk =   0.0081633
        k(  189) = (  -0.4000000  -0.1919299   0.4339735), wk =   0.0081633
        k(  190) = (  -0.4000000  -0.1919299   0.5450095), wk =   0.0081633
        k(  191) = (  -0.4000000  -0.1919299  -0.1212068), wk =   0.0081633
        k(  192) = (  -0.4000000  -0.1919299  -0.0101707), wk =   0.0081633
        k(  193) = (  -0.4000000  -0.1919299   0.1008653), wk =   0.0081633
        k(  194) = (  -0.4000000  -0.2927478   0.2424125), wk =   0.0081633
        k(  195) = (  -0.4000000  -0.2927478   0.3534486), wk =   0.0081633
        k(  196) = (  -0.4000000  -0.2927478   0.4644846), wk =   0.0081633
        k(  197) = (  -0.4000000  -0.2927478   0.5755207), wk =   0.0081633
        k(  198) = (  -0.4000000  -0.2927478  -0.0906956), wk =   0.0081633
        k(  199) = (  -0.4000000  -0.2927478   0.0203404), wk =   0.0081633
        k(  200) = (  -0.4000000  -0.2927478   0.1313765), wk =   0.0081633
        k(  201) = (  -0.4000000   0.3121597   0.0593457), wk =   0.0081633
        k(  202) = (  -0.4000000   0.3121597   0.1703817), wk =   0.0081633
        k(  203) = (  -0.4000000   0.3121597   0.2814178), wk =   0.0081633
        k(  204) = (  -0.4000000   0.3121597   0.3924538), wk =   0.0081633
        k(  205) = (  -0.4000000   0.3121597  -0.2737625), wk =   0.0081633
        k(  206) = (  -0.4000000   0.3121597  -0.1627264), wk =   0.0081633
        k(  207) = (  -0.4000000   0.3121597  -0.0516904), wk =   0.0081633
        k(  208) = (  -0.4000000   0.2113418   0.0898568), wk =   0.0081633
        k(  209) = (  -0.4000000   0.2113418   0.2008929), wk =   0.0081633
        k(  210) = (  -0.4000000   0.2113418   0.3119289), wk =   0.0081633
        k(  211) = (  -0.4000000   0.2113418   0.4229650), wk =   0.0081633
        k(  212) = (  -0.4000000   0.2113418  -0.2432513), wk =   0.0081633
        k(  213) = (  -0.4000000   0.2113418  -0.1322153), wk =   0.0081633
        k(  214) = (  -0.4000000   0.2113418  -0.0211792), wk =   0.0081633
        k(  215) = (  -0.4000000   0.1105239   0.1203680), wk =   0.0081633
        k(  216) = (  -0.4000000   0.1105239   0.2314040), wk =   0.0081633
        k(  217) = (  -0.4000000   0.1105239   0.3424401), wk =   0.0081633
        k(  218) = (  -0.4000000   0.1105239   0.4534761), wk =   0.0081633
        k(  219) = (  -0.4000000   0.1105239  -0.2127402), wk =   0.0081633
        k(  220) = (  -0.4000000   0.1105239  -0.1017041), wk =   0.0081633
        k(  221) = (  -0.4000000   0.1105239   0.0093319), wk =   0.0081633
        k(  222) = (   0.5000000  -0.0121324  -0.1885989), wk =   0.0040816
        k(  223) = (   0.5000000  -0.0121324  -0.0775628), wk =   0.0081633
        k(  224) = (   0.5000000  -0.0121324   0.0334732), wk =   0.0081633
        k(  225) = (   0.5000000  -0.0121324   0.1445093), wk =   0.0081633
        k(  226) = (   0.5000000  -0.1129503  -0.1580877), wk =   0.0081633
        k(  227) = (   0.5000000  -0.1129503  -0.0470517), wk =   0.0081633
        k(  228) = (   0.5000000  -0.1129503   0.0639844), wk =   0.0081633
        k(  229) = (   0.5000000  -0.1129503   0.1750204), wk =   0.0081633
        k(  230) = (   0.5000000  -0.1129503  -0.4911959), wk =   0.0081633
        k(  231) = (   0.5000000  -0.1129503  -0.3801598), wk =   0.0081633
        k(  232) = (   0.5000000  -0.1129503  -0.2691238), wk =   0.0081633
        k(  233) = (   0.5000000  -0.2137683  -0.1275766), wk =   0.0081633
        k(  234) = (   0.5000000  -0.2137683  -0.0165405), wk =   0.0081633
        k(  235) = (   0.5000000  -0.2137683   0.0944955), wk =   0.0081633
        k(  236) = (   0.5000000  -0.2137683   0.2055316), wk =   0.0081633
        k(  237) = (   0.5000000  -0.2137683  -0.4606847), wk =   0.0081633
        k(  238) = (   0.5000000  -0.2137683  -0.3496487), wk =   0.0081633
        k(  239) = (   0.5000000  -0.2137683  -0.2386126), wk =   0.0081633
        k(  240) = (   0.5000000  -0.3145862  -0.0970655), wk =   0.0081633
        k(  241) = (   0.5000000  -0.3145862   0.0139706), wk =   0.0081633
        k(  242) = (   0.5000000  -0.3145862   0.1250066), wk =   0.0081633
        k(  243) = (   0.5000000  -0.3145862   0.2360427), wk =   0.0081633
        k(  244) = (   0.5000000  -0.3145862  -0.4301736), wk =   0.0081633
        k(  245) = (   0.5000000  -0.3145862  -0.3191376), wk =   0.0081633
        k(  246) = (   0.5000000  -0.3145862  -0.2081015), wk =   0.0081633

                       cryst. coord.
        k(    1) = (   0.0000000   0.0000000   0.0000000), wk =   0.0040816
        k(    2) = (   0.0000000   0.0000000   0.1428571), wk =   0.0081633
        k(    3) = (   0.0000000   0.0000000   0.2857143), wk =   0.0081633
        k(    4) = (   0.0000000   0.0000000   0.4285714), wk =   0.0081633
        k(    5) = (   0.0000000   0.1428571  -0.0000000), wk =   0.0081633
        k(    6) = (   0.0000000   0.1428571   0.1428571), wk =   0.0081633
        k(    7) = (   0.0000000   0.1428571   0.2857143), wk =   0.0081633
        k(    8) = (   0.0000000   0.1428571   0.4285714), wk =   0.0081633
        k(    9) = (  -0.0000000   0.1428571  -0.4285714), wk =   0.0081633
        k(   10) = (  -0.0000000   0.1428571  -0.2857143), wk =   0.0081633
        k(   11) = (  -0.0000000   0.1428571  -0.1428571), wk =   0.0081633
        k(   12) = (   0.0000000   0.2857143  -0.0000000), wk =   0.0081633
        k(   13) = (   0.0000000   0.2857143   0.1428571), wk =   0.0081633
        k(   14) = (   0.0000000   0.2857143   0.2857143), wk =   0.0081633
        k(   15) = (   0.0000000   0.2857143   0.4285714), wk =   0.0081633
        k(   16) = (  -0.0000000   0.2857143  -0.4285714), wk =   0.0081633
        k(   17) = (  -0.0000000   0.2857143  -0.2857143), wk =   0.0081633
        k(   18) = (  -0.0000000   0.2857143  -0.1428571), wk =   0.0081633
        k(   19) = (   0.0000000   0.4285714  -0.0000000), wk =   0.0081633
        k(   20) = (   0.0000000   0.4285714   0.1428571), wk =   0.0081633
        k(   21) = (   0.0000000   0.4285714   0.2857143), wk =   0.0081633
        k(   22) = (   0.0000000   0.4285714   0.4285714), wk =   0.0081633
        k(   23) = (  -0.0000000   0.4285714  -0.4285714), wk =   0.0081633
        k(   24) = (  -0.0000000   0.4285714  -0.2857143), wk =   0.0081633
        k(   25) = (  -0.0000000   0.4285714  -0.1428571), wk =   0.0081633
        k(   26) = (   0.1000000  -0.0000000  -0.0000000), wk =   0.0081633
        k(   27) = (   0.1000000  -0.0000000   0.1428571), wk =   0.0081633
        k(   28) = (   0.1000000  -0.0000000   0.2857143), wk =   0.0081633
        k(   29) = (   0.1000000  -0.0000000   0.4285714), wk =   0.0081633
        k(   30) = (   0.1000000  -0.0000000  -0.4285714), wk =   0.0081633
        k(   31) = (   0.1000000  -0.0000000  -0.2857143), wk =   0.0081633
        k(   32) = (   0.1000000  -0.0000000  -0.1428571), wk =   0.0081633
        k(   33) = (   0.1000000   0.1428571   0.0000000), wk =   0.0081633
        k(   34) = (   0.1000000   0.1428571   0.1428571), wk =   0.0081633
        k(   35) = (   0.1000000   0.1428571   0.2857143), wk =   0.0081633
        k(   36) = (   0.1000000   0.1428571   0.4285714), wk =   0.0081633
        k(   37) = (   0.1000000   0.1428571  -0.4285714), wk =   0.0081633
        k(   38) = (   0.1000000   0.1428571  -0.2857143), wk =   0.0081633
        k(   39) = (   0.1000000   0.1428571  -0.1428571), wk =   0.0081633
        k(   40) = (   0.1000000   0.2857143  -0.0000000), wk =   0.0081633
        k(   41) = (   0.1000000   0.2857143   0.1428571), wk =   0.0081633
        k(   42) = (   0.1000000   0.2857143   0.2857143), wk =   0.0081633
        k(   43) = (   0.1000000   0.2857143   0.4285714), wk =   0.0081633
        k(   44) = (   0.1000000   0.2857143  -0.4285714), wk =   0.0081633
        k(   45) = (   0.1000000   0.2857143  -0.2857143), wk =   0.0081633
        k(   46) = (   0.1000000   0.2857143  -0.1428571), wk =   0.0081633
        k(   47) = (   0.1000000   0.4285714  -0.0000000), wk =   0.0081633
        k(   48) = (   0.1000000   0.4285714   0.1428571), wk =   0.0081633
        k(   49) = (   0.1000000   0.4285714   0.2857143), wk =   0.0081633
        k(   50) = (   0.1000000   0.4285714   0.4285714), wk =   0.0081633
        k(   51) = (   0.1000000   0.4285714  -0.4285714), wk =   0.0081633
        k(   52) = (   0.1000000   0.4285714  -0.2857143), wk =   0.0081633
        k(   53) = (   0.1000000   0.4285714  -0.1428571), wk =   0.0081633
        k(   54) = (   0.1000000  -0.4285714   0.0000000), wk =   0.0081633
        k(   55) = (   0.1000000  -0.4285714   0.1428571), wk =   0.0081633
        k(   56) = (   0.1000000  -0.4285714   0.2857143), wk =   0.0081633
        k(   57) = (   0.1000000  -0.4285714   0.4285714), wk =   0.0081633
        k(   58) = (   0.1000000  -0.4285714  -0.4285714), wk =   0.0081633
        k(   59) = (   0.1000000  -0.4285714  -0.2857143), wk =   0.0081633
        k(   60) = (   0.1000000  -0.4285714  -0.1428571), wk =   0.0081633
        k(   61) = (   0.1000000  -0.2857143   0.0000000), wk =   0.0081633
        k(   62) = (   0.1000000  -0.2857143   0.1428571), wk =   0.0081633
        k(   63) = (   0.1000000  -0.2857143   0.2857143), wk =   0.0081633
        k(   64) = (   0.1000000  -0.2857143   0.4285714), wk =   0.0081633
        k(   65) = (   0.1000000  -0.2857143  -0.4285714), wk =   0.0081633
        k(   66) = (   0.1000000  -0.2857143  -0.2857143), wk =   0.0081633
        k(   67) = (   0.1000000  -0.2857143  -0.1428571), wk =   0.0081633
        k(   68) = (   0.1000000  -0.1428571   0.0000000), wk =   0.0081633
        k(   69) = (   0.1000000  -0.1428571   0.1428571), wk =   0.0081633
        k(   70) = (   0.1000000  -0.1428571   0.2857143), wk =   0.0081633
        k(   71) = (   0.1000000  -0.1428571   0.4285714), wk =   0.0081633
        k(   72) = (   0.1000000  -0.1428571  -0.4285714), wk =   0.0081633
        k(   73) = (   0.1000000  -0.1428571  -0.2857143), wk =   0.0081633
        k(   74) = (   0.1000000  -0.1428571  -0.1428571), wk =   0.0081633
        k(   75) = (   0.2000000  -0.0000000  -0.0000000), wk =   0.0081633
        k(   76) = (   0.2000000  -0.0000000   0.1428571), wk =   0.0081633
        k(   77) = (   0.2000000  -0.0000000   0.2857143), wk =   0.0081633
        k(   78) = (   0.2000000  -0.0000000   0.4285714), wk =   0.0081633
        k(   79) = (   0.2000000  -0.0000000  -0.4285714), wk =   0.0081633
        k(   80) = (   0.2000000  -0.0000000  -0.2857143), wk =   0.0081633
        k(   81) = (   0.2000000  -0.0000000  -0.1428571), wk =   0.0081633
        k(   82) = (   0.2000000   0.1428571  -0.0000000), wk =   0.0081633
        k(   83) = (   0.2000000   0.1428571   0.1428571), wk =   0.0081633
        k(   84) = (   0.2000000   0.1428571   0.2857143), wk =   0.0081633
        k(   85) = (   0.2000000   0.1428571   0.4285714), wk =   0.0081633
        k(   86) = (   0.2000000   0.1428571  -0.4285714), wk =   0.0081633
        k(   87) = (   0.2000000   0.1428571  -0.2857143), wk =   0.0081633
        k(   88) = (   0.2000000   0.1428571  -0.1428571), wk =   0.0081633
        k(   89) = (   0.2000000   0.2857143   0.0000000), wk =   0.0081633
        k(   90) = (   0.2000000   0.2857143   0.1428571), wk =   0.0081633
        k(   91) = (   0.2000000   0.2857143   0.2857143), wk =   0.0081633
        k(   92) = (   0.2000000   0.2857143   0.4285714), wk =   0.0081633
        k(   93) = (   0.2000000   0.2857143  -0.4285714), wk =   0.0081633
        k(   94) = (   0.2000000   0.2857143  -0.2857143), wk =   0.0081633
        k(   95) = (   0.2000000   0.2857143  -0.1428571), wk =   0.0081633
        k(   96) = (   0.2000000   0.4285714  -0.0000000), wk =   0.0081633
        k(   97) = (   0.2000000   0.4285714   0.1428571), wk =   0.0081633
        k(   98) = (   0.2000000   0.4285714   0.2857143), wk =   0.0081633
        k(   99) = (   0.2000000   0.4285714   0.4285714), wk =   0.0081633
        k(  100) = (   0.2000000   0.4285714  -0.4285714), wk =   0.0081633
        k(  101) = (   0.2000000   0.4285714  -0.2857143), wk =   0.0081633
        k(  102) = (   0.2000000   0.4285714  -0.1428571), wk =   0.0081633
        k(  103) = (   0.2000000  -0.4285714  -0.0000000), wk =   0.0081633
        k(  104) = (   0.2000000  -0.4285714   0.1428571), wk =   0.0081633
        k(  105) = (   0.2000000  -0.4285714   0.2857143), wk =   0.0081633
        k(  106) = (   0.2000000  -0.4285714   0.4285714), wk =   0.0081633
        k(  107) = (   0.2000000  -0.4285714  -0.4285714), wk =   0.0081633
        k(  108) = (   0.2000000  -0.4285714  -0.2857143), wk =   0.0081633
        k(  109) = (   0.2000000  -0.4285714  -0.1428571), wk =   0.0081633
        k(  110) = (   0.2000000  -0.2857143   0.0000000), wk =   0.0081633
        k(  111) = (   0.2000000  -0.2857143   0.1428571), wk =   0.0081633
        k(  112) = (   0.2000000  -0.2857143   0.2857143), wk =   0.0081633
        k(  113) = (   0.2000000  -0.2857143   0.4285714), wk =   0.0081633
        k(  114) = (   0.2000000  -0.2857143  -0.4285714), wk =   0.0081633
        k(  115) = (   0.2000000  -0.2857143  -0.2857143), wk =   0.0081633
        k(  116) = (   0.2000000  -0.2857143  -0.1428571), wk =   0.0081633
        k(  117) = (   0.2000000  -0.1428571   0.0000000), wk =   0.0081633
        k(  118) = (   0.2000000  -0.1428571   0.1428571), wk =   0.0081633
        k(  119) = (   0.2000000  -0.1428571   0.2857143), wk =   0.0081633
        k(  120) = (   0.2000000  -0.1428571   0.4285714), wk =   0.0081633
        k(  121) = (   0.2000000  -0.1428571  -0.4285714), wk =   0.0081633
        k(  122) = (   0.2000000  -0.1428571  -0.2857143), wk =   0.0081633
        k(  123) = (   0.2000000  -0.1428571  -0.1428571), wk =   0.0081633
        k(  124) = (   0.3000000   0.0000000  -0.0000000), wk =   0.0081633
        k(  125) = (   0.3000000   0.0000000   0.1428571), wk =   0.0081633
        k(  126) = (   0.3000000   0.0000000   0.2857143), wk =   0.0081633
        k(  127) = (   0.3000000   0.0000000   0.4285714), wk =   0.0081633
        k(  128) = (   0.3000000   0.0000000  -0.4285714), wk =   0.0081633
        k(  129) = (   0.3000000   0.0000000  -0.2857143), wk =   0.0081633
        k(  130) = (   0.3000000   0.0000000  -0.1428571), wk =   0.0081633
        k(  131) = (   0.3000000   0.1428571  -0.0000000), wk =   0.0081633
        k(  132) = (   0.3000000   0.1428571   0.1428571), wk =   0.0081633
        k(  133) = (   0.3000000   0.1428571   0.2857143), wk =   0.0081633
        k(  134) = (   0.3000000   0.1428571   0.4285714), wk =   0.0081633
        k(  135) = (   0.3000000   0.1428571  -0.4285714), wk =   0.0081633
        k(  136) = (   0.3000000   0.1428571  -0.2857143), wk =   0.0081633
        k(  137) = (   0.3000000   0.1428571  -0.1428571), wk =   0.0081633
        k(  138) = (   0.3000000   0.2857143  -0.0000000), wk =   0.0081633
        k(  139) = (   0.3000000   0.2857143   0.1428571), wk =   0.0081633
        k(  140) = (   0.3000000   0.2857143   0.2857143), wk =   0.0081633
        k(  141) = (   0.3000000   0.2857143   0.4285714), wk =   0.0081633
        k(  142) = (   0.3000000   0.2857143  -0.4285714), wk =   0.0081633
        k(  143) = (   0.3000000   0.2857143  -0.2857143), wk =   0.0081633
        k(  144) = (   0.3000000   0.2857143  -0.1428571), wk =   0.0081633
        k(  145) = (   0.3000000   0.4285714   0.0000000), wk =   0.0081633
        k(  146) = (   0.3000000   0.4285714   0.1428571), wk =   0.0081633
        k(  147) = (   0.3000000   0.4285714   0.2857143), wk =   0.0081633
        k(  148) = (   0.3000000   0.4285714   0.4285714), wk =   0.0081633
        k(  149) = (   0.3000000   0.4285714  -0.4285714), wk =   0.0081633
        k(  150) = (   0.3000000   0.4285714  -0.2857143), wk =   0.0081633
        k(  151) = (   0.3000000   0.4285714  -0.1428571), wk =   0.0081633
        k(  152) = (   0.3000000  -0.4285714   0.0000000), wk =   0.0081633
        k(  153) = (   0.3000000  -0.4285714   0.1428571), wk =   0.0081633
        k(  154) = (   0.3000000  -0.4285714   0.2857143), wk =   0.0081633
        k(  155) = (   0.3000000  -0.4285714   0.4285714), wk =   0.0081633
        k(  156) = (   0.3000000  -0.4285714  -0.4285714), wk =   0.0081633
        k(  157) = (   0.3000000  -0.4285714  -0.2857143), wk =   0.0081633
        k(  158) = (   0.3000000  -0.4285714  -0.1428571), wk =   0.0081633
        k(  159) = (   0.3000000  -0.2857143   0.0000000), wk =   0.0081633
        k(  160) = (   0.3000000  -0.2857143   0.1428571), wk =   0.0081633
        k(  161) = (   0.3000000  -0.2857143   0.2857143), wk =   0.0081633
        k(  162) = (   0.3000000  -0.2857143   0.4285714), wk =   0.0081633
        k(  163) = (   0.3000000  -0.2857143  -0.4285714), wk =   0.0081633
        k(  164) = (   0.3000000  -0.2857143  -0.2857143), wk =   0.0081633
        k(  165) = (   0.3000000  -0.2857143  -0.1428571), wk =   0.0081633
        k(  166) = (   0.3000000  -0.1428571   0.0000000), wk =   0.0081633
        k(  167) = (   0.3000000  -0.1428571   0.1428571), wk =   0.0081633
        k(  168) = (   0.3000000  -0.1428571   0.2857143), wk =   0.0081633
        k(  169) = (   0.3000000  -0.1428571   0.4285714), wk =   0.0081633
        k(  170) = (   0.3000000  -0.1428571  -0.4285714), wk =   0.0081633
        k(  171) = (   0.3000000  -0.1428571  -0.2857143), wk =   0.0081633
        k(  172) = (   0.3000000  -0.1428571  -0.1428571), wk =   0.0081633
        k(  173) = (   0.4000000  -0.0000000  -0.0000000), wk =   0.0081633
        k(  174) = (   0.4000000  -0.0000000   0.1428571), wk =   0.0081633
        k(  175) = (   0.4000000  -0.0000000   0.2857143), wk =   0.0081633
        k(  176) = (   0.4000000  -0.0000000   0.4285714), wk =   0.0081633
        k(  177) = (   0.4000000  -0.0000000  -0.4285714), wk =   0.0081633
        k(  178) = (   0.4000000  -0.0000000  -0.2857143), wk =   0.0081633
        k(  179) = (   0.4000000  -0.0000000  -0.1428571), wk =   0.0081633
        k(  180) = (   0.4000000   0.1428571  -0.0000000), wk =   0.0081633
        k(  181) = (   0.4000000   0.1428571   0.1428571), wk =   0.0081633
        k(  182) = (   0.4000000   0.1428571   0.2857143), wk =   0.0081633
        k(  183) = (   0.4000000   0.1428571   0.4285714), wk =   0.0081633
        k(  184) = (   0.4000000   0.1428571  -0.4285714), wk =   0.0081633
        k(  185) = (   0.4000000   0.1428571  -0.2857143), wk =   0.0081633
        k(  186) = (   0.4000000   0.1428571  -0.1428571), wk =   0.0081633
        k(  187) = (   0.4000000   0.2857143  -0.0000000), wk =   0.0081633
        k(  188) = (   0.4000000   0.2857143   0.1428571), wk =   0.0081633
        k(  189) = (   0.4000000   0.2857143   0.2857143), wk =   0.0081633
        k(  190) = (   0.4000000   0.2857143   0.4285714), wk =   0.0081633
        k(  191) = (   0.4000000   0.2857143  -0.4285714), wk =   0.0081633
        k(  192) = (   0.4000000   0.2857143  -0.2857143), wk =   0.0081633
        k(  193) = (   0.4000000   0.2857143  -0.1428571), wk =   0.0081633
        k(  194) = (   0.4000000   0.4285714   0.0000000), wk =   0.0081633
        k(  195) = (   0.4000000   0.4285714   0.1428571), wk =   0.0081633
        k(  196) = (   0.4000000   0.4285714   0.2857143), wk =   0.0081633
        k(  197) = (   0.4000000   0.4285714   0.4285714), wk =   0.0081633
        k(  198) = (   0.4000000   0.4285714  -0.4285714), wk =   0.0081633
        k(  199) = (   0.4000000   0.4285714  -0.2857143), wk =   0.0081633
        k(  200) = (   0.4000000   0.4285714  -0.1428571), wk =   0.0081633
        k(  201) = (   0.4000000  -0.4285714   0.0000000), wk =   0.0081633
        k(  202) = (   0.4000000  -0.4285714   0.1428571), wk =   0.0081633
        k(  203) = (   0.4000000  -0.4285714   0.2857143), wk =   0.0081633
        k(  204) = (   0.4000000  -0.4285714   0.4285714), wk =   0.0081633
        k(  205) = (   0.4000000  -0.4285714  -0.4285714), wk =   0.0081633
        k(  206) = (   0.4000000  -0.4285714  -0.2857143), wk =   0.0081633
        k(  207) = (   0.4000000  -0.4285714  -0.1428571), wk =   0.0081633
        k(  208) = (   0.4000000  -0.2857143   0.0000000), wk =   0.0081633
        k(  209) = (   0.4000000  -0.2857143   0.1428571), wk =   0.0081633
        k(  210) = (   0.4000000  -0.2857143   0.2857143), wk =   0.0081633
        k(  211) = (   0.4000000  -0.2857143   0.4285714), wk =   0.0081633
        k(  212) = (   0.4000000  -0.2857143  -0.4285714), wk =   0.0081633
        k(  213) = (   0.4000000  -0.2857143  -0.2857143), wk =   0.0081633
        k(  214) = (   0.4000000  -0.2857143  -0.1428571), wk =   0.0081633
        k(  215) = (   0.4000000  -0.1428571   0.0000000), wk =   0.0081633
        k(  216) = (   0.4000000  -0.1428571   0.1428571), wk =   0.0081633
        k(  217) = (   0.4000000  -0.1428571   0.2857143), wk =   0.0081633
        k(  218) = (   0.4000000  -0.1428571   0.4285714), wk =   0.0081633
        k(  219) = (   0.4000000  -0.1428571  -0.4285714), wk =   0.0081633
        k(  220) = (   0.4000000  -0.1428571  -0.2857143), wk =   0.0081633
        k(  221) = (   0.4000000  -0.1428571  -0.1428571), wk =   0.0081633
        k(  222) = (  -0.5000000   0.0000000   0.0000000), wk =   0.0040816
        k(  223) = (  -0.5000000   0.0000000   0.1428571), wk =   0.0081633
        k(  224) = (  -0.5000000   0.0000000   0.2857143), wk =   0.0081633
        k(  225) = (  -0.5000000   0.0000000   0.4285714), wk =   0.0081633
        k(  226) = (  -0.5000000   0.1428571  -0.0000000), wk =   0.0081633
        k(  227) = (  -0.5000000   0.1428571   0.1428571), wk =   0.0081633
        k(  228) = (  -0.5000000   0.1428571   0.2857143), wk =   0.0081633
        k(  229) = (  -0.5000000   0.1428571   0.4285714), wk =   0.0081633
        k(  230) = (  -0.5000000   0.1428571  -0.4285714), wk =   0.0081633
        k(  231) = (  -0.5000000   0.1428571  -0.2857143), wk =   0.0081633
        k(  232) = (  -0.5000000   0.1428571  -0.1428571), wk =   0.0081633
        k(  233) = (  -0.5000000   0.2857143  -0.0000000), wk =   0.0081633
        k(  234) = (  -0.5000000   0.2857143   0.1428571), wk =   0.0081633
        k(  235) = (  -0.5000000   0.2857143   0.2857143), wk =   0.0081633
        k(  236) = (  -0.5000000   0.2857143   0.4285714), wk =   0.0081633
        k(  237) = (  -0.5000000   0.2857143  -0.4285714), wk =   0.0081633
        k(  238) = (  -0.5000000   0.2857143  -0.2857143), wk =   0.0081633
        k(  239) = (  -0.5000000   0.2857143  -0.1428571), wk =   0.0081633
        k(  240) = (  -0.5000000   0.4285714  -0.0000000), wk =   0.0081633
        k(  241) = (  -0.5000000   0.4285714   0.1428571), wk =   0.0081633
        k(  242) = (  -0.5000000   0.4285714   0.2857143), wk =   0.0081633
        k(  243) = (  -0.5000000   0.4285714   0.4285714), wk =   0.0081633
        k(  244) = (  -0.5000000   0.4285714  -0.4285714), wk =   0.0081633
        k(  245) = (  -0.5000000   0.4285714  -0.2857143), wk =   0.0081633
        k(  246) = (  -0.5000000   0.4285714  -0.1428571), wk =   0.0081633

     Dense  grid:    34067 G-vectors     FFT dimensions: (  36,  48,  48)

     Smooth grid:     8599 G-vectors     FFT dimensions: (  24,  30,  30)

     Dynamical RAM for                 wfc:       0.36 MB

     Dynamical RAM for     wfc (w. buffer):      89.30 MB

     Dynamical RAM for           str. fact:       1.04 MB

     Dynamical RAM for           local pot:       0.00 MB

     Dynamical RAM for          nlocal pot:       0.82 MB

     Dynamical RAM for                qrad:       3.59 MB

     Dynamical RAM for          rho,v,vnew:       3.46 MB

     Dynamical RAM for               rhoin:       1.15 MB

     Dynamical RAM for            rho*nmix:       8.32 MB

     Dynamical RAM for           G-vectors:       2.01 MB

     Dynamical RAM for          h,s,v(r/c):       0.35 MB

     Dynamical RAM for          <psi|beta>:       0.02 MB

     Dynamical RAM for                 psi:       1.45 MB

     Dynamical RAM for                hpsi:       1.45 MB

     Dynamical RAM for                spsi:       1.45 MB

     Dynamical RAM for      wfcinit/wfcrot:       0.97 MB

     Dynamical RAM for           addusdens:      98.77 MB

     Dynamical RAM for          addusforce:     103.72 MB

     Dynamical RAM for         addusstress:     104.48 MB

     Estimated static dynamical RAM per process >     114.42 MB

     Estimated max dynamical RAM per process >     218.90 MB

     Check: negative core charge=   -0.000047

     Initial potential from superposition of free atoms

     starting charge   35.99953, renormalised to   36.00000
     Starting wfcs are   29 randomized atomic wfcs

     total cpu time spent up to now is        6.1 secs

     Self-consistent Calculation

     iteration #  1     ecut=    50.00 Ry     beta= 0.40
     Davidson diagonalization with overlap
     ethr =  1.00E-02,  avg # of iterations =  2.3

     total cpu time spent up to now is       15.4 secs

     total energy              =    -409.44164791 Ry
     estimated scf accuracy    <       0.39453889 Ry

     iteration #  2     ecut=    50.00 Ry     beta= 0.40
     Davidson diagonalization with overlap
     ethr =  1.10E-03,  avg # of iterations =  2.4

     total cpu time spent up to now is       23.8 secs

     total energy              =    -409.44509220 Ry
     estimated scf accuracy    <       0.20792278 Ry

     iteration #  3     ecut=    50.00 Ry     beta= 0.40
     Davidson diagonalization with overlap
     ethr =  5.78E-04,  avg # of iterations =  2.2

     total cpu time spent up to now is       31.7 secs

     total energy              =    -409.46061535 Ry
     estimated scf accuracy    <       0.38059225 Ry

     iteration #  4     ecut=    50.00 Ry     beta= 0.40
     Davidson diagonalization with overlap
     ethr =  5.78E-04,  avg # of iterations =  2.0

     total cpu time spent up to now is       39.3 secs

     total energy              =    -409.49767669 Ry
     estimated scf accuracy    <       0.00657632 Ry

     iteration #  5     ecut=    50.00 Ry     beta= 0.40
     Davidson diagonalization with overlap
     ethr =  1.83E-05,  avg # of iterations =  4.2

     total cpu time spent up to now is       50.1 secs

     total energy              =    -409.49946051 Ry
     estimated scf accuracy    <       0.00089590 Ry

     iteration #  6     ecut=    50.00 Ry     beta= 0.40
     Davidson diagonalization with overlap
     ethr =  2.49E-06,  avg # of iterations =  1.7

     total cpu time spent up to now is       57.5 secs

     total energy              =    -409.49954427 Ry
     estimated scf accuracy    <       0.00005694 Ry

     iteration #  7     ecut=    50.00 Ry     beta= 0.40
     Davidson diagonalization with overlap
     ethr =  1.58E-07,  avg # of iterations =  3.0

     total cpu time spent up to now is       66.9 secs

     total energy              =    -409.49957188 Ry
     estimated scf accuracy    <       0.00000220 Ry

     iteration #  8     ecut=    50.00 Ry     beta= 0.40
     Davidson diagonalization with overlap
     ethr =  6.11E-09,  avg # of iterations =  3.4

     total cpu time spent up to now is       77.4 secs

     total energy              =    -409.49957833 Ry
     estimated scf accuracy    <       0.00000017 Ry

     iteration #  9     ecut=    50.00 Ry     beta= 0.40
     Davidson diagonalization with overlap
     ethr =  4.72E-10,  avg # of iterations =  2.5

     total cpu time spent up to now is       86.0 secs

     total energy              =    -409.49958036 Ry
     estimated scf accuracy    <       0.00000003 Ry

     iteration # 10     ecut=    50.00 Ry     beta= 0.40
     Davidson diagonalization with overlap
     ethr =  7.21E-11,  avg # of iterations =  3.1

     total cpu time spent up to now is       95.6 secs

     total energy              =    -409.49958112 Ry
     estimated scf accuracy    <          1.6E-09 Ry

     iteration # 11     ecut=    50.00 Ry     beta= 0.40
     Davidson diagonalization with overlap
     ethr =  4.33E-12,  avg # of iterations =  2.7

     total cpu time spent up to now is      105.3 secs

     End of self-consistent calculation

          k = 0.0000 0.0000 0.0000 (  1081 PWs)   bands (ev):

   -66.5623 -32.9569 -32.7069 -32.4794  -7.5529   0.2853   1.8055   6.5659
     9.0229  11.2387  11.8806  12.8863  14.8061  15.3389  17.2622  18.0617
    18.4512  20.1199  21.3767  26.1275  26.1517  26.5892

     occupation numbers 
     1.0000   1.0000   1.0000   1.0000   1.0000   1.0000   1.0000   1.0000
     1.0000   1.0000   1.0000   1.0000   1.0000   1.0000   1.0000   1.0000
     1.0000   1.0000   0.8083   0.0000   0.0000   0.0000

          k = 0.0000 0.0000 0.1110 (  1080 PWs)   bands (ev):

   -66.5621 -32.9579 -32.7084 -32.4806  -7.3417  -0.9516   2.8635   6.6050
     9.0485  10.5636  12.0398  13.7184  14.7531  15.4433  17.3138  17.8823
    18.8045  19.9013  21.4712  24.8696  26.3297  27.2628

     occupation numbers 
     1.0000   1.0000   1.0000   1.0000   1.0000   1.0000   1.0000   1.0000
     1.0000   1.0000   1.0000   1.0000   1.0000   1.0000   1.0000   1.0000
     1.0000   1.0000   0.5792   0.0000   0.0000   0.0000

          k = 0.0000 0.0000 0.2221 (  1078 PWs)   bands (ev):

   -66.5619 -32.9596 -32.7121 -32.4827  -6.7311  -2.6365   3.9391   6.2804
     9.5621  10.5108  12.0372  14.2512  14.9183  15.4573  17.0379  18.4256
    19.1448  19.5369  21.4406  24.0761  25.8482  27.8883

     occupation numbers 
     1.0000   1.0000   1.0000   1.0000   1.0000   1.0000   1.0000   1.0000
     1.0000   1.0000   1.0000   1.0000   1.0000   1.0000   1.0000   1.0000
     1.0000   1.0000   0.6560   0.0000   0.0000   0.0000

          k = 0.0000 0.0000 0.3331 (  1063 PWs)   bands (ev):

   -66.5614 -32.9609 -32.7148 -32.4839  -5.8422  -4.0858   4.6565   5.4971
    10.7062  10.8814  12.0505  14.1579  14.8628  15.0891  16.8857  18.4604
    19.3989  20.0571  20.9878  24.0548  25.6296  28.1051

     occupation numbers 
     1.0000   1.0000   1.0000   1.0000   1.0000   1.0000   1.0000   1.0000
     1.0000   1.0000   1.0000   1.0000   1.0000   1.0000   1.0000   1.0000
     1.0000   1.0000   1.0544   0.0000   0.0000   0.0000

          k = 0.0000-0.1008 0.0305 (  1081 PWs)   bands (ev):

   -66.5622 -32.9587 -32.7079 -32.4795  -7.4432  -0.0012   1.8659   6.6585
     8.4314  10.9848  12.6039  13.3334  14.2389  16.1112  16.9977  18.3381
    18.8347  19.8305  21.2632  25.4412  26.1386  26.9892

     occupation numbers 
     1.0000   1.0000   1.0000   1.0000   1.0000   1.0000   1.0000   1.0000
     1.0000   1.0000   1.0000   1.0000   1.0000   1.0000   1.0000   1.0000
     1.0000   1.0000   1.0065   0.0000   0.0000   0.0000

          k = 0.0000-0.1008 0.1415 (  1082 PWs)   bands (ev):

   -66.5621 -32.9600 -32.7095 -32.4805  -7.1773  -1.1277   2.4377   7.2625
     8.1113  11.0065  12.3185  13.5581  14.9042  16.1079  17.3097  17.9858
    19.0691  19.5470  21.2774  24.3797  26.0952  27.7299

     occupation numbers 
     1.0000   1.0000   1.0000   1.0000   1.0000   1.0000   1.0000   1.0000
     1.0000   1.0000   1.0000   1.0000   1.0000   1.0000   1.0000   1.0000
     1.0000   1.0000   0.9884   0.0000   0.0000   0.0000

          k = 0.0000-0.1008 0.2526 (  1073 PWs)   bands (ev):

   -66.5617 -32.9614 -32.7130 -32.4826  -6.5450  -2.7435   3.0789   6.8869
     9.2708  11.1943  12.3338  13.5419  14.9129  15.7735  17.5779  18.2831
    19.1937  19.4726  21.1447  24.2328  25.7831  28.0496

     occupation numbers 
     1.0000   1.0000   1.0000   1.0000   1.0000   1.0000   1.0000   1.0000
     1.0000   1.0000   1.0000   1.0000   1.0000   1.0000   1.0000   1.0000
     1.0000   1.0000   1.0816   0.0000   0.0000   0.0000

          k = 0.0000-0.1008 0.3636 (  1065 PWs)   bands (ev):

   -66.5613 -32.9620 -32.7160 -32.4838  -5.6982  -4.1431   3.7709   6.0818
    10.6420  11.0612  12.5336  13.5690  14.7407  15.3200  17.3064  18.5155
    19.2344  20.3421  20.7586  24.1668  25.5262  28.2891

     occupation numbers 
     1.0000   1.0000   1.0000   1.0000   1.0000   1.0000   1.0000   1.0000
     1.0000   1.0000   1.0000   1.0000   1.0000   1.0000   1.0000   1.0000
     1.0000   1.0000   1.0068   0.0000   0.0000   0.0000

          k = 0.0000-0.1008-0.3026 (  1069 PWs)   bands (ev):

   -66.5614 -32.9612 -32.7162 -32.4839  -5.8871  -3.9743   4.7014   5.3085
     9.9346  11.0006  12.5718  14.1917  14.7665  15.3611  17.1322  18.4981
    19.3113  20.0254  21.4252  23.8722  25.1980  28.5262

     occupation numbers 
     1.0000   1.0000   1.0000   1.0000   1.0000   1.0000   1.0000   1.0000
     1.0000   1.0000   1.0000   1.0000   1.0000   1.0000   1.0000   1.0000
     1.0000   1.0000   0.6941   0.0000   0.0000   0.0000

          k = 0.0000-0.1008-0.1916 (  1076 PWs)   bands (ev):

   -66.5617 -32.9597 -32.7133 -32.4824  -6.7530  -2.5614   4.2735   5.7359
     9.1584  10.4388  12.7344  14.3026  14.5041  15.5892  17.0622  18.7064
    19.1817  19.5219  21.8246  24.4249  25.3258  28.0056

     occupation numbers 
     1.0000   1.0000   1.0000   1.0000   1.0000   1.0000   1.0000   1.0000
     1.0000   1.0000   1.0000   1.0000   1.0000   1.0000   1.0000   1.0000
     1.0000   1.0000   0.0373   0.0000   0.0000   0.0000

          k = 0.0000-0.1008-0.0805 (  1075 PWs)   bands (ev):

   -66.5619 -32.9584 -32.7096 -32.4804  -7.3013  -0.9757   2.9043   6.3986
     8.5864  10.7875  12.9376  13.2811  14.2431  15.7668  17.1613  18.5632
    18.8179  19.8326  21.5322  25.5810  25.8963  26.9318

     occupation numbers 
     1.0000   1.0000   1.0000   1.0000   1.0000   1.0000   1.0000   1.0000
     1.0000   1.0000   1.0000   1.0000   1.0000   1.0000   1.0000   1.0000
     1.0000   1.0000   0.4297   0.0000   0.0000   0.0000

          k = 0.0000-0.2016 0.0610 (  1083 PWs)   bands (ev):

   -66.5620 -32.9625 -32.7103 -32.4792  -7.1745  -0.6234   2.0109   6.3817
     8.3281  10.1832  13.3059  14.2426  14.3260  16.5777  17.2385  18.2810
    19.2639  20.1600  20.9979  24.8614  25.1242  27.5809

     occupation numbers 
     1.0000   1.0000   1.0000   1.0000   1.0000   1.0000   1.0000   1.0000
     1.0000   1.0000   1.0000   1.0000   1.0000   1.0000   1.0000   1.0000
     1.0000   1.0000   1.0576   0.0000   0.0000   0.0000

          k = 0.0000-0.2016 0.1721 (  1086 PWs)   bands (ev):

   -66.5619 -32.9635 -32.7120 -32.4804  -6.9043  -1.4240   2.0409   7.2492
     8.0487  10.3680  13.0460  14.1761  14.8816  16.3636  17.4852  18.3700
    19.2640  19.8183  21.0471  24.3694  25.1949  28.0830

     occupation numbers 
     1.0000   1.0000   1.0000   1.0000   1.0000   1.0000   1.0000   1.0000
     1.0000   1.0000   1.0000   1.0000   1.0000   1.0000   1.0000   1.0000
     1.0000   1.0000   1.0721   0.0000   0.0000   0.0000

          k = 0.0000-0.2016 0.2831 (  1074 PWs)   bands (ev):

   -66.5615 -32.9640 -32.7158 -32.4824  -6.3135  -2.8225   2.3925   7.0187
     9.1109  11.0422  12.9466  13.7932  14.7134  15.9960  17.9970  18.3756
    19.2521  19.7226  21.0477  24.5990  25.1453  28.5251

     occupation numbers 
     1.0000   1.0000   1.0000   1.0000   1.0000   1.0000   1.0000   1.0000
     1.0000   1.0000   1.0000   1.0000   1.0000   1.0000   1.0000   1.0000
     1.0000   1.0000   1.0723   0.0000   0.0000   0.0000

          k = 0.0000-0.2016 0.3941 (  1066 PWs)   bands (ev):

   -66.5611 -32.9638 -32.7188 -32.4839  -5.5495  -4.1214   3.1942   5.9925
    10.2266  11.5828  12.8193  13.3325  14.9542  15.5708  17.8529  18.6049
    18.9895  20.7122  20.8091  24.1494  24.9437  28.9514

     occupation numbers 
     1.0000   1.0000   1.0000   1.0000   1.0000   1.0000   1.0000   1.0000
     1.0000   1.0000   1.0000   1.0000   1.0000   1.0000   1.0000   1.0000
     1.0000   1.0038   1.0122   0.0000   0.0000   0.0000

          k = 0.0000-0.2016-0.2721 (  1068 PWs)   bands (ev):

   -66.5612 -32.9628 -32.7191 -32.4837  -5.7963  -3.9103   4.3751   4.8890
     9.6841  11.4943  13.0529  13.8298  14.5980  15.8814  17.5048  18.5889
    19.1226  20.1819  21.9001  23.9927  24.5204  29.0815

     occupation numbers 
     1.0000   1.0000   1.0000   1.0000   1.0000   1.0000   1.0000   1.0000
     1.0000   1.0000   1.0000   1.0000   1.0000   1.0000   1.0000   1.0000
     1.0000   1.0000   0.0149   0.0000   0.0000   0.0000

          k = 0.0000-0.2016-0.1610 (  1079 PWs)   bands (ev):

   -66.5616 -32.9618 -32.7163 -32.4824  -6.5966  -2.5924   3.6784   5.7120
     8.5454  11.5703  13.1434  13.5291  14.3814  16.2568  17.3462  18.7430
    19.1054  19.8033  22.2274  24.3392  24.9063  28.2553

     occupation numbers 
     1.0000   1.0000   1.0000   1.0000   1.0000   1.0000   1.0000   1.0000
     1.0000   1.0000   1.0000   1.0000   1.0000   1.0000   1.0000   1.0000
     1.0000   1.0000   0.0001   0.0000   0.0000   0.0000

          k = 0.0000-0.2016-0.0500 (  1083 PWs)   bands (ev):

   -66.5619 -32.9617 -32.7122 -32.4804  -7.0772  -1.2221   2.5780   6.7143
     7.5594  11.3246  13.0695  13.5924  14.2077  16.5205  17.4010  18.3035
    19.3820  19.8627  21.5957  24.7848  25.5613  27.3648

     occupation numbers 
     1.0000   1.0000   1.0000   1.0000   1.0000   1.0000   1.0000   1.0000
     1.0000   1.0000   1.0000   1.0000   1.0000   1.0000   1.0000   1.0000
     1.0000   1.0000   0.2923   0.0000   0.0000   0.0000

          k = 0.0000-0.3025 0.0915 (  1086 PWs)   bands (ev):

   -66.5619 -32.9657 -32.7123 -32.4793  -6.9309  -1.1185   2.1388   5.9477
     8.7738   9.6032  13.0054  14.5713  15.6735  16.1728  17.9908  18.2731
    18.8829  20.6604  21.7397  23.6933  24.5176  27.8723

     occupation numbers 
     1.0000   1.0000   1.0000   1.0000   1.0000   1.0000   1.0000   1.0000
     1.0000   1.0000   1.0000   1.0000   1.0000   1.0000   1.0000   1.0000
     1.0000   1.0019   0.0908   0.0000   0.0000   0.0000

          k = 0.0000-0.3025 0.2026 (  1091 PWs)   bands (ev):

   -66.5619 -32.9659 -32.7144 -32.4803  -6.7264  -1.6384   1.9638   6.9430
     7.9192  10.4392  12.8562  14.4529  15.5969  16.2843  17.8602  18.1403
    19.2585  20.1991  21.7885  23.8854  24.6356  28.1199

     occupation numbers 
     1.0000   1.0000   1.0000   1.0000   1.0000   1.0000   1.0000   1.0000
     1.0000   1.0000   1.0000   1.0000   1.0000   1.0000   1.0000   1.0000
     1.0000   1.0000   0.0555   0.0000   0.0000   0.0000

          k = 0.0000-0.3025 0.3136 (  1078 PWs)   bands (ev):

   -66.5615 -32.9657 -32.7182 -32.4822  -6.2212  -2.8258   2.2926   6.6071
     8.8234  11.4726  12.5941  14.0529  15.2447  16.1065  18.0062  18.2591
    19.2246  20.1286  21.6752  24.1313  24.8496  28.4125

     occupation numbers 
     1.0000   1.0000   1.0000   1.0000   1.0000   1.0000   1.0000   1.0000
     1.0000   1.0000   1.0000   1.0000   1.0000   1.0000   1.0000   1.0000
     1.0000   1.0000   0.1615   0.0000   0.0000   0.0000

          k = 0.0000-0.3025 0.4246 (  1063 PWs)   bands (ev):

   -66.5610 -32.9651 -32.7212 -32.4838  -5.5083  -4.0536   3.2657   5.2913
    10.0423  12.2781  12.3599  13.7044  14.8402  16.1847  17.7189  18.6345
    18.9167  20.9454  21.2390  24.1451  24.4132  29.1671

     occupation numbers 
     1.0000   1.0000   1.0000   1.0000   1.0000   1.0000   1.0000   1.0000
     1.0000   1.0000   1.0000   1.0000   1.0000   1.0000   1.0000   1.0000
     1.0000   1.0414   1.0325   0.0000   0.0000   0.0000

          k = 0.0000-0.3025-0.2416 (  1064 PWs)   bands (ev):

   -66.5610 -32.9645 -32.7213 -32.4837  -5.6242  -3.9574   3.9559   4.6098
     9.8470  11.9460  13.1382  13.6127  14.5238  16.4917  17.4362  18.6623
    18.9081  20.6454  21.8821  23.9479  24.3854  29.2616

     occupation numbers 
     1.0000   1.0000   1.0000   1.0000   1.0000   1.0000   1.0000   1.0000
     1.0000   1.0000   1.0000   1.0000   1.0000   1.0000   1.0000   1.0000
     1.0000   1.0015   0.0187   0.0000   0.0000   0.0000

          k = 0.0000-0.3025-0.1305 (  1076 PWs)   bands (ev):

   -66.5614 -32.9645 -32.7183 -32.4822  -6.3576  -2.7208   2.8228   6.0430
     8.5714  11.9493  12.6524  13.8541  14.6929  16.6736  17.5481  18.5381
    18.9664  20.2416  22.4980  23.5183  24.9570  28.2943

     occupation numbers 
     1.0000   1.0000   1.0000   1.0000   1.0000   1.0000   1.0000   1.0000
     1.0000   1.0000   1.0000   1.0000   1.0000   1.0000   1.0000   1.0000
     1.0000   1.0000   0.0000   0.0000   0.0000   0.0000

          k = 0.0000-0.3025-0.0195 (  1088 PWs)   bands (ev):

   -66.5619 -32.9650 -32.7143 -32.4802  -6.8121  -1.5411   2.1963   6.8597
     7.4934  10.8655  12.9454  14.0162  15.2876  16.7145  17.7853  18.0432
    19.1043  20.3112  22.2447  23.5312  25.0405  27.8241

     occupation numbers 
     1.0000   1.0000   1.0000   1.0000   1.0000   1.0000   1.0000   1.0000
     1.0000   1.0000   1.0000   1.0000   1.0000   1.0000   1.0000   1.0000
     1.0000   1.0000   0.0000   0.0000   0.0000   0.0000

          k =-0.1000 0.0024 0.0377 (  1081 PWs)   bands (ev):

   -66.5580 -32.9553 -32.7132 -32.5039  -7.3690  -0.1100   2.2913   6.6255
     9.1167  11.0013  12.0245  12.5956  14.1522  14.7914  17.0339  18.1959
    19.3599  20.0037  21.7214  25.4486  26.2254  26.9685

     occupation numbers 
     1.0000   1.0000   1.0000   1.0000   1.0000   1.0000   1.0000   1.0000
     1.0000   1.0000   1.0000   1.0000   1.0000   1.0000   1.0000   1.0000
     1.0000   1.0000   0.1079   0.0000   0.0000   0.0000

          k =-0.1000 0.0024 0.1488 (  1080 PWs)   bands (ev):

   -66.5579 -32.9562 -32.7148 -32.5063  -6.9910  -1.7037   3.6014   6.4930
     9.4484  10.4381  12.0062  13.4530  14.4170  14.9493  17.1447  17.7254
    19.2715  19.7623  22.2417  24.3658  25.7523  27.9122

     occupation numbers 
     1.0000   1.0000   1.0000   1.0000   1.0000   1.0000   1.0000   1.0000
     1.0000   1.0000   1.0000   1.0000   1.0000   1.0000   1.0000   1.0000
     1.0000   1.0000   0.0001   0.0000   0.0000   0.0000

          k =-0.1000 0.0024 0.2598 (  1073 PWs)   bands (ev):

   -66.5575 -32.9578 -32.7177 -32.5086  -6.2369  -3.2684   4.4809   5.8747
    10.2939  10.7366  11.6713  13.5188  14.6781  15.3311  17.3114  18.1015
    18.8525  19.5140  22.2676  23.8141  25.4760  28.3361

     occupation numbers 
     1.0000   1.0000   1.0000   1.0000   1.0000   1.0000   1.0000   1.0000
     1.0000   1.0000   1.0000   1.0000   1.0000   1.0000   1.0000   1.0000
     1.0000   1.0000   0.0000   0.0000   0.0000   0.0000

          k =-0.1000 0.0024 0.3708 (  1077 PWs)   bands (ev):

   -66.5574 -32.9593 -32.7202 -32.5096  -5.4512  -4.3160   4.8285   5.3563
    10.9272  11.1017  11.4286  13.4396  14.4963  15.4009  17.4164  18.5015
    19.0398  19.4816  21.7576  24.0603  25.5388  28.3766

     occupation numbers 
     1.0000   1.0000   1.0000   1.0000   1.0000   1.0000   1.0000   1.0000
     1.0000   1.0000   1.0000   1.0000   1.0000   1.0000   1.0000   1.0000
     1.0000   1.0000   0.0763   0.0000   0.0000   0.0000

          k =-0.1000 0.0024-0.2954 (  1075 PWs)   bands (ev):

   -66.5574 -32.9591 -32.7199 -32.5081  -6.0998  -3.3731   4.1848   6.0291
    10.1892  10.7008  11.2371  13.4289  15.0188  15.6444  17.5790  18.3045
    19.2536  20.2314  20.9516  24.2506  25.5835  28.0947

     occupation numbers 
     1.0000   1.0000   1.0000   1.0000   1.0000   1.0000   1.0000   1.0000
     1.0000   1.0000   1.0000   1.0000   1.0000   1.0000   1.0000   1.0000
     1.0000   1.0000   1.0432   0.0000   0.0000   0.0000

          k =-0.1000 0.0024-0.1844 (  1077 PWs)   bands (ev):

   -66.5577 -32.9576 -32.7171 -32.5053  -6.8855  -1.7625   3.3660   6.7095
     9.0006  10.3800  11.4476  13.1270  14.8810  16.0015  17.5451  18.3441
    19.4695  20.0139  20.9580  24.3754  25.9835  27.6135

     occupation numbers 
     1.0000   1.0000   1.0000   1.0000   1.0000   1.0000   1.0000   1.0000
     1.0000   1.0000   1.0000   1.0000   1.0000   1.0000   1.0000   1.0000
     1.0000   1.0000   1.0452   0.0000   0.0000   0.0000

          k =-0.1000 0.0024-0.0733 (  1076 PWs)   bands (ev):

   -66.5579 -32.9558 -32.7142 -32.5035  -7.3302  -0.1142   2.2015   6.7513
     8.8666  10.8076  11.6216  12.8418  14.0637  15.5962  17.1559  18.7381
    19.2517  19.8696  21.2842  25.4791  26.1253  26.9193

     occupation numbers 
     1.0000   1.0000   1.0000   1.0000   1.0000   1.0000   1.0000   1.0000
     1.0000   1.0000   1.0000   1.0000   1.0000   1.0000   1.0000   1.0000
     1.0000   1.0000   0.9790   0.0000   0.0000   0.0000

          k =-0.1000-0.0984 0.0682 (  1074 PWs)   bands (ev):

   -66.5578 -32.9566 -32.7143 -32.5037  -7.2494  -0.3244   2.1556   6.8369
     8.5562  11.0817  12.2642  13.1909  13.9277  15.1589  17.3054  17.6274
    19.6780  19.9635  21.7662  24.9555  25.8564  27.6005

     occupation numbers 
     1.0000   1.0000   1.0000   1.0000   1.0000   1.0000   1.0000   1.0000
     1.0000   1.0000   1.0000   1.0000   1.0000   1.0000   1.0000   1.0000
     1.0000   1.0000   0.0699   0.0000   0.0000   0.0000

          k =-0.1000-0.0984 0.1793 (  1082 PWs)   bands (ev):

   -66.5578 -32.9582 -32.7161 -32.5061  -6.8213  -1.8347   2.9542   7.1560
     8.5934  11.2518  12.1058  13.1710  14.4540  15.7723  17.1691  17.5222
    19.3845  19.7828  22.0743  24.0948  25.5522  28.1618

     occupation numbers 
     1.0000   1.0000   1.0000   1.0000   1.0000   1.0000   1.0000   1.0000
     1.0000   1.0000   1.0000   1.0000   1.0000   1.0000   1.0000   1.0000
     1.0000   1.0000   0.0011   0.0000   0.0000   0.0000

          k =-0.1000-0.0984 0.2903 (  1076 PWs)   bands (ev):

   -66.5574 -32.9593 -32.7192 -32.5085  -6.0547  -3.3582   3.5702   6.3563
    10.1531  11.0588  12.0789  13.1651  14.8099  15.7734  16.9829  18.3625
    18.9716  19.5583  22.0579  24.0274  25.3129  28.3246

     occupation numbers 
     1.0000   1.0000   1.0000   1.0000   1.0000   1.0000   1.0000   1.0000
     1.0000   1.0000   1.0000   1.0000   1.0000   1.0000   1.0000   1.0000
     1.0000   1.0000   0.0015   0.0000   0.0000   0.0000

          k =-0.1000-0.0984 0.4013 (  1075 PWs)   bands (ev):

   -66.5573 -32.9601 -32.7216 -32.5094  -5.3960  -4.2844   4.3191   5.5482
    10.2263  11.0292  12.1008  13.5197  14.9963  15.8148  16.8265  18.5713
    19.0672  19.9144  21.7569  24.0750  25.1326  28.5346

     occupation numbers 
     1.0000   1.0000   1.0000   1.0000   1.0000   1.0000   1.0000   1.0000
     1.0000   1.0000   1.0000   1.0000   1.0000   1.0000   1.0000   1.0000
     1.0000   1.0000   0.0768   0.0000   0.0000   0.0000

          k =-0.1000-0.0984-0.2649 (  1078 PWs)   bands (ev):

   -66.5574 -32.9591 -32.7215 -32.5078  -6.1507  -3.2577   4.6782   5.3393
     9.4701  10.3661  11.9170  14.0888  14.9379  16.0742  17.0690  18.3886
    19.2302  20.2633  21.6015  24.1001  25.1445  28.2624

     occupation numbers 
     1.0000   1.0000   1.0000   1.0000   1.0000   1.0000   1.0000   1.0000
     1.0000   1.0000   1.0000   1.0000   1.0000   1.0000   1.0000   1.0000
     1.0000   1.0000   0.2813   0.0000   0.0000   0.0000

          k =-0.1000-0.0984-0.1538 (  1079 PWs)   bands (ev):

   -66.5576 -32.9576 -32.7188 -32.5051  -6.8981  -1.7035   3.5612   6.1877
     8.8822  10.0852  12.1221  13.9178  14.1430  15.8065  17.6686  18.1755
    19.5519  19.8386  21.6985  24.8201  25.6817  27.4721

     occupation numbers 
     1.0000   1.0000   1.0000   1.0000   1.0000   1.0000   1.0000   1.0000
     1.0000   1.0000   1.0000   1.0000   1.0000   1.0000   1.0000   1.0000
     1.0000   1.0000   0.1324   0.0000   0.0000   0.0000

          k =-0.1000-0.0984-0.0428 (  1078 PWs)   bands (ev):

   -66.5579 -32.9566 -32.7156 -32.5032  -7.2785  -0.2032   2.2176   6.5390
     8.6527  10.8426  12.5502  12.8268  13.7894  15.2315  17.7054  18.0118
    19.4517  20.0440  21.6028  25.7295  26.0527  26.7732

     occupation numbers 
     1.0000   1.0000   1.0000   1.0000   1.0000   1.0000   1.0000   1.0000
     1.0000   1.0000   1.0000   1.0000   1.0000   1.0000   1.0000   1.0000
     1.0000   1.0000   0.2788   0.0000   0.0000   0.0000

          k =-0.1000-0.1992 0.0987 (  1082 PWs)   bands (ev):

   -66.5577 -32.9603 -32.7167 -32.5036  -6.9853  -0.7885   2.0604   6.7631
     8.3419  10.2161  13.2620  13.6116  13.9571  16.1389  17.0656  18.0283
    19.4368  20.5740  21.6247  24.3932  25.1292  27.9932

     occupation numbers 
     1.0000   1.0000   1.0000   1.0000   1.0000   1.0000   1.0000   1.0000
     1.0000   1.0000   1.0000   1.0000   1.0000   1.0000   1.0000   1.0000
     1.0000   1.0005   0.2389   0.0000   0.0000   0.0000

          k =-0.1000-0.1992 0.2098 (  1077 PWs)   bands (ev):

   -66.5575 -32.9611 -32.7185 -32.5059  -6.5596  -2.0053   2.3331   7.4597
     8.2311  10.7840  12.8319  13.5154  14.2218  16.2992  17.5306  17.9859
    19.2147  20.3275  21.7007  24.1591  24.8265  28.4843

     occupation numbers 
     1.0000   1.0000   1.0000   1.0000   1.0000   1.0000   1.0000   1.0000
     1.0000   1.0000   1.0000   1.0000   1.0000   1.0000   1.0000   1.0000
     1.0000   1.0000   0.1299   0.0000   0.0000   0.0000

          k =-0.1000-0.1992 0.3208 (  1070 PWs)   bands (ev):

   -66.5571 -32.9617 -32.7219 -32.5082  -5.8415  -3.4021   2.8608   6.4399
     9.8962  11.1393  12.3677  13.2893  15.0796  15.6890  17.3530  18.5924
    19.4681  19.7536  21.7774  24.2930  24.6235  28.7957

     occupation numbers 
     1.0000   1.0000   1.0000   1.0000   1.0000   1.0000   1.0000   1.0000
     1.0000   1.0000   1.0000   1.0000   1.0000   1.0000   1.0000   1.0000
     1.0000   1.0000   0.0623   0.0000   0.0000   0.0000

          k =-0.1000-0.1992 0.4319 (  1068 PWs)   bands (ev):

   -66.5570 -32.9615 -32.7242 -32.5091  -5.2981  -4.2237   3.8016   5.4571
     9.7466  11.2241  12.7379  13.4036  15.1410  16.0436  16.9745  18.7609
    19.1111  20.3246  21.9054  24.0272  24.4251  29.0015

     occupation numbers 
     1.0000   1.0000   1.0000   1.0000   1.0000   1.0000   1.0000   1.0000
     1.0000   1.0000   1.0000   1.0000   1.0000   1.0000   1.0000   1.0000
     1.0000   1.0000   0.0139   0.0000   0.0000   0.0000

          k =-0.1000-0.1992-0.2344 (  1069 PWs)   bands (ev):

   -66.5571 -32.9604 -32.7241 -32.5075  -6.0562  -3.2208   4.3571   5.0488
     8.9443  10.7994  12.6238  14.2013  14.6567  16.5235  16.9048  18.5622
    19.0841  20.1750  22.5186  24.1466  24.5367  28.6426

     occupation numbers 
     1.0000   1.0000   1.0000   1.0000   1.0000   1.0000   1.0000   1.0000
     1.0000   1.0000   1.0000   1.0000   1.0000   1.0000   1.0000   1.0000
     1.0000   1.0000   0.0000   0.0000   0.0000   0.0000

          k =-0.1000-0.1992-0.1233 (  1074 PWs)   bands (ev):

   -66.5574 -32.9597 -32.7214 -32.5049  -6.7370  -1.7933   3.1519   6.2787
     7.9449  11.0052  12.7786  13.3588  14.5117  16.0676  17.4776  18.3887
    19.1985  19.9696  22.5111  24.5082  25.4782  27.7246

     occupation numbers 
     1.0000   1.0000   1.0000   1.0000   1.0000   1.0000   1.0000   1.0000
     1.0000   1.0000   1.0000   1.0000   1.0000   1.0000   1.0000   1.0000
     1.0000   1.0000   0.0000   0.0000   0.0000   0.0000

          k =-0.1000-0.1992-0.0123 (  1079 PWs)   bands (ev):

   -66.5577 -32.9597 -32.7180 -32.5031  -7.0531  -0.6190   2.1762   6.5469
     7.9721  10.8124  12.6995  13.5186  14.2263  15.8680  17.1720  18.1985
    19.6300  20.0628  22.0063  24.8103  25.6556  27.4088

     occupation numbers 
     1.0000   1.0000   1.0000   1.0000   1.0000   1.0000   1.0000   1.0000
     1.0000   1.0000   1.0000   1.0000   1.0000   1.0000   1.0000   1.0000
     1.0000   1.0000   0.0033   0.0000   0.0000   0.0000

          k =-0.1000-0.3000 0.1293 (  1081 PWs)   bands (ev):

   -66.5576 -32.9632 -32.7186 -32.5035  -6.7616  -1.1710   2.0982   6.3965
     8.4738   9.8750  12.7965  13.6312  15.2568  16.3924  17.6133  18.4909
    18.9107  21.0243  21.8448  23.5865  24.6152  28.0440

     occupation numbers 
     1.0000   1.0000   1.0000   1.0000   1.0000   1.0000   1.0000   1.0000
     1.0000   1.0000   1.0000   1.0000   1.0000   1.0000   1.0000   1.0000
     1.0000   1.0657   0.0295   0.0000   0.0000   0.0000

          k =-0.1000-0.3000 0.2403 (  1083 PWs)   bands (ev):

   -66.5575 -32.9633 -32.7205 -32.5060  -6.4056  -2.1019   2.1406   7.2479
     8.0168  10.9515  12.5043  13.3688  15.2714  16.1296  17.6790  18.5755
    19.3077  20.6663  21.6492  23.6819  24.6817  28.3982

     occupation numbers 
     1.0000   1.0000   1.0000   1.0000   1.0000   1.0000   1.0000   1.0000
     1.0000   1.0000   1.0000   1.0000   1.0000   1.0000   1.0000   1.0000
     1.0000   1.0020   0.1989   0.0000   0.0000   0.0000

          k =-0.1000-0.3000 0.3513 (  1070 PWs)   bands (ev):

   -66.5570 -32.9630 -32.7238 -32.5082  -5.7680  -3.3759   2.7686   6.0278
     9.6686  11.7332  11.9626  13.5233  15.0740  15.7424  17.5372  18.7296
    19.8132  20.3168  21.6341  23.8423  24.5067  28.7496

     occupation numbers 
     1.0000   1.0000   1.0000   1.0000   1.0000   1.0000   1.0000   1.0000
     1.0000   1.0000   1.0000   1.0000   1.0000   1.0000   1.0000   1.0000
     1.0000   1.0000   0.2229   0.0000   0.0000   0.0000

          k =-0.1000-0.3000 0.4624 (  1063 PWs)   bands (ev):

   -66.5567 -32.9624 -32.7264 -32.5088  -5.2082  -4.2172   3.9070   4.7930
     9.8008  11.5517  12.9436  13.3831  14.5985  16.3653  17.2167  18.7329
    19.2522  20.8048  21.8579  23.8804  24.2629  29.3743

     occupation numbers 
     1.0000   1.0000   1.0000   1.0000   1.0000   1.0000   1.0000   1.0000
     1.0000   1.0000   1.0000   1.0000   1.0000   1.0000   1.0000   1.0000
     1.0000   1.0116   0.0253   0.0000   0.0000   0.0000

          k =-0.1000-0.3000-0.2039 (  1067 PWs)   bands (ev):

   -66.5569 -32.9624 -32.7259 -32.5075  -5.8734  -3.3050   3.5456   5.3189
     9.0361  11.1760  13.2326  13.4802  14.5931  16.6441  17.2294  18.6175
    18.9605  20.3765  22.7211  23.7359  24.7238  28.8248

     occupation numbers 
     1.0000   1.0000   1.0000   1.0000   1.0000   1.0000   1.0000   1.0000
     1.0000   1.0000   1.0000   1.0000   1.0000   1.0000   1.0000   1.0000
     1.0000   1.0000   0.0000   0.0000   0.0000   0.0000

          k =-0.1000-0.3000-0.0928 (  1083 PWs)   bands (ev):

   -66.5574 -32.9625 -32.7233 -32.5051  -6.5024  -1.9862   2.5409   6.7459
     7.6548  11.1321  12.5128  13.7398  14.9470  16.6168  17.1566  18.6599
    18.8437  20.1487  23.1942  23.4831  25.3576  27.9773

     occupation numbers 
     1.0000   1.0000   1.0000   1.0000   1.0000   1.0000   1.0000   1.0000
     1.0000   1.0000   1.0000   1.0000   1.0000   1.0000   1.0000   1.0000
     1.0000   1.0000   0.0000   0.0000   0.0000   0.0000

          k =-0.1000-0.3000 0.0182 (  1088 PWs)   bands (ev):

   -66.5577 -32.9632 -32.7199 -32.5032  -6.8009  -1.0650   2.1286   6.3304
     8.1659  10.2256  12.3163  14.3391  15.2026  16.2082  17.1841  18.4693
    19.0806  20.4110  22.6408  23.6496  25.1109  27.7697

     occupation numbers 
     1.0000   1.0000   1.0000   1.0000   1.0000   1.0000   1.0000   1.0000
     1.0000   1.0000   1.0000   1.0000   1.0000   1.0000   1.0000   1.0000
     1.0000   1.0000   0.0000   0.0000   0.0000   0.0000

          k =-0.1000 0.3049-0.0538 (  1080 PWs)   bands (ev):

   -66.5576 -32.9631 -32.7184 -32.5036  -6.7809  -1.1354   2.1866   6.3348
     8.1944  10.0994  12.6102  13.6033  15.4451  16.2920  17.6879  18.6917
    19.1621  20.6479  21.6742  23.7443  24.6971  27.8441

     occupation numbers 
     1.0000   1.0000   1.0000   1.0000   1.0000   1.0000   1.0000   1.0000
     1.0000   1.0000   1.0000   1.0000   1.0000   1.0000   1.0000   1.0000
     1.0000   1.0016   0.1628   0.0000   0.0000   0.0000

          k =-0.1000 0.3049 0.0572 (  1081 PWs)   bands (ev):

   -66.5575 -32.9624 -32.7204 -32.5062  -6.5054  -2.0044   2.4557   6.8283
     7.9157  11.3857  12.3847  13.2936  14.9548  15.9396  17.7488  18.8388
    19.6152  20.2336  21.7548  23.6523  25.1046  28.0292

     occupation numbers 
     1.0000   1.0000   1.0000   1.0000   1.0000   1.0000   1.0000   1.0000
     1.0000   1.0000   1.0000   1.0000   1.0000   1.0000   1.0000   1.0000
     1.0000   1.0000   0.0784   0.0000   0.0000   0.0000

          k =-0.1000 0.3049 0.1683 (  1067 PWs)   bands (ev):

   -66.5570 -32.9621 -32.7238 -32.5083  -5.9075  -3.2766   3.3450   5.4791
     9.5529  11.7358  12.5211  13.6525  13.9414  15.8284  17.7563  18.8823
    19.5524  20.4103  21.8168  23.7670  24.7209  28.7029

     occupation numbers 
     1.0000   1.0000   1.0000   1.0000   1.0000   1.0000   1.0000   1.0000
     1.0000   1.0000   1.0000   1.0000   1.0000   1.0000   1.0000   1.0000
     1.0000   1.0000   0.0407   0.0000   0.0000   0.0000

          k =-0.1000 0.3049 0.2793 (  1067 PWs)   bands (ev):

   -66.5568 -32.9625 -32.7262 -32.5092  -5.2291  -4.2198   4.1184   4.6266
    10.0111  11.8752  12.6920  13.2591  14.1684  16.0188  17.7881  18.6301
    19.2138  20.9648  21.4955  23.9872  24.5210  29.5340

     occupation numbers 
     1.0000   1.0000   1.0000   1.0000   1.0000   1.0000   1.0000   1.0000
     1.0000   1.0000   1.0000   1.0000   1.0000   1.0000   1.0000   1.0000
     1.0000   1.0472   0.5185   0.0000   0.0000   0.0000

          k =-0.1000 0.3049-0.3869 (  1069 PWs)   bands (ev):

   -66.5569 -32.9634 -32.7257 -32.5076  -5.7403  -3.4274   2.9312   5.9776
     9.3875  11.3252  12.6223  13.5967  14.4559  16.2159  17.8929  18.4370
    19.0248  20.5675  21.8560  24.1595  24.9017  28.6549

     occupation numbers 
     1.0000   1.0000   1.0000   1.0000   1.0000   1.0000   1.0000   1.0000
     1.0000   1.0000   1.0000   1.0000   1.0000   1.0000   1.0000   1.0000
     1.0000   1.0004   0.0258   0.0000   0.0000   0.0000

          k =-0.1000 0.3049-0.2759 (  1085 PWs)   bands (ev):

   -66.5574 -32.9640 -32.7230 -32.5052  -6.3772  -2.1077   2.1533   7.3013
     7.8070  10.8276  12.0715  14.4872  14.8674  16.5636  17.0880  18.5750
    19.1313  20.1657  22.2482  24.0612  25.2147  28.0527

     occupation numbers 
     1.0000   1.0000   1.0000   1.0000   1.0000   1.0000   1.0000   1.0000
     1.0000   1.0000   1.0000   1.0000   1.0000   1.0000   1.0000   1.0000
     1.0000   1.0000   0.0000   0.0000   0.0000   0.0000

          k =-0.1000 0.3049-0.1648 (  1083 PWs)   bands (ev):

   -66.5575 -32.9637 -32.7196 -32.5033  -6.7333  -1.1685   2.0613   6.3166
     8.5558   9.8085  12.0581  14.8684  15.2943  16.0215  17.5041  18.4200
    19.3283  20.3113  22.1366  23.8535  24.7025  27.8731

     occupation numbers 
     1.0000   1.0000   1.0000   1.0000   1.0000   1.0000   1.0000   1.0000
     1.0000   1.0000   1.0000   1.0000   1.0000   1.0000   1.0000   1.0000
     1.0000   1.0000   0.0004   0.0000   0.0000   0.0000

          k =-0.1000 0.2041-0.0233 (  1080 PWs)   bands (ev):

   -66.5578 -32.9602 -32.7164 -32.5039  -7.0240  -0.7112   2.2483   6.6461
     7.8854  10.4985  12.6250  13.7272  14.2383  15.9017  17.5630  18.8724
    19.2326  20.4269  21.0481  24.5809  25.3599  27.5254

     occupation numbers 
     1.0000   1.0000   1.0000   1.0000   1.0000   1.0000   1.0000   1.0000
     1.0000   1.0000   1.0000   1.0000   1.0000   1.0000   1.0000   1.0000
     1.0000   1.0000   1.0723   0.0000   0.0000   0.0000

          k =-0.1000 0.2041 0.0877 (  1073 PWs)   bands (ev):

   -66.5575 -32.9593 -32.7180 -32.5062  -6.7624  -1.8002   3.0953   6.4422
     8.1133  11.7999  12.3270  13.5160  13.6766  15.3986  17.9488  18.9642
    19.2127  19.8609  21.8374  24.2736  25.5855  27.8475

     occupation numbers 
     1.0000   1.0000   1.0000   1.0000   1.0000   1.0000   1.0000   1.0000
     1.0000   1.0000   1.0000   1.0000   1.0000   1.0000   1.0000   1.0000
     1.0000   1.0000   0.0322   0.0000   0.0000   0.0000

          k =-0.1000 0.2041 0.1988 (  1073 PWs)   bands (ev):

   -66.5572 -32.9600 -32.7216 -32.5085  -6.1323  -3.1839   4.2823   5.1851
     9.4779  11.6895  12.4469  13.4601  13.8951  15.2387  18.0784  18.9535
    19.1371  19.6303  22.2314  24.0535  24.8826  28.9461

     occupation numbers 
     1.0000   1.0000   1.0000   1.0000   1.0000   1.0000   1.0000   1.0000
     1.0000   1.0000   1.0000   1.0000   1.0000   1.0000   1.0000   1.0000
     1.0000   1.0000   0.0001   0.0000   0.0000   0.0000

[...]
    18.5086  21.5007  22.7791  24.3795  25.1731  28.1990

     occupation numbers 
     1.0000   1.0000   1.0000   1.0000   1.0000   1.0000   1.0000   1.0000
     1.0000   1.0000   1.0000   1.0000   1.0000   1.0000   1.0000   1.0000
     1.0000   0.5057   0.0000   0.0000   0.0000   0.0000

          k = 0.5000-0.1130 0.0640 (  1082 PWs)   bands (ev):

   -66.5179 -33.0302 -32.8426 -32.5701  -4.9923  -1.2710   3.0094   6.6195
     7.1470   9.0572  11.5398  11.7449  13.6335  15.7581  16.9325  18.1030
    18.7671  21.4720  22.6585  24.5265  25.1768  27.4697

     occupation numbers 
     1.0000   1.0000   1.0000   1.0000   1.0000   1.0000   1.0000   1.0000
     1.0000   1.0000   1.0000   1.0000   1.0000   1.0000   1.0000   1.0000
     1.0000   0.5772   0.0000   0.0000   0.0000   0.0000

          k = 0.5000-0.1130 0.1750 (  1085 PWs)   bands (ev):

   -66.5179 -33.0323 -32.8421 -32.5693  -5.2285  -0.2093   2.2164   6.0842
     7.8439   8.1520  10.8112  12.6304  14.2857  15.5798  16.9670  18.1135
    19.0216  21.4846  22.9492  24.4119  25.0341  27.2204

     occupation numbers 
     1.0000   1.0000   1.0000   1.0000   1.0000   1.0000   1.0000   1.0000
     1.0000   1.0000   1.0000   1.0000   1.0000   1.0000   1.0000   1.0000
     1.0000   0.5456   0.0000   0.0000   0.0000   0.0000

          k = 0.5000-0.1130-0.4912 (  1077 PWs)   bands (ev):

   -66.5178 -33.0319 -32.8421 -32.5692  -5.2400  -0.3303   2.3471   6.0528
     7.9304   8.3252  10.9179  13.2233  14.4195  14.8970  16.0679  17.8737
    18.7126  21.5622  23.6645  24.7219  25.0068  27.4971

     occupation numbers 
     1.0000   1.0000   1.0000   1.0000   1.0000   1.0000   1.0000   1.0000
     1.0000   1.0000   1.0000   1.0000   1.0000   1.0000   1.0000   1.0000
     1.0000   0.3617   0.0000   0.0000   0.0000   0.0000

          k = 0.5000-0.1130-0.3802 (  1085 PWs)   bands (ev):

   -66.5180 -33.0297 -32.8432 -32.5701  -5.0012  -1.5020   3.3589   6.3471
     7.7419   9.0422  11.9562  13.0582  13.3623  14.1644  15.5410  17.2488
    18.9844  21.6269  23.9712  24.5116  25.0876  28.2508

     occupation numbers 
     1.0000   1.0000   1.0000   1.0000   1.0000   1.0000   1.0000   1.0000
     1.0000   1.0000   1.0000   1.0000   1.0000   1.0000   1.0000   1.0000
     1.0000   0.2352   0.0000   0.0000   0.0000   0.0000

          k = 0.5000-0.1130-0.2691 (  1079 PWs)   bands (ev):

   -66.5179 -33.0272 -32.8439 -32.5710  -4.4829  -2.7213   4.2959   6.4629
     7.9437  10.0471  11.4821  11.9985  13.4396  13.8936  15.5823  17.4315
    18.7963  21.6324  23.6665  24.2472  24.9149  28.5000

     occupation numbers 
     1.0000   1.0000   1.0000   1.0000   1.0000   1.0000   1.0000   1.0000
     1.0000   1.0000   1.0000   1.0000   1.0000   1.0000   1.0000   1.0000
     1.0000   0.2258   0.0000   0.0000   0.0000   0.0000

          k = 0.5000-0.2138-0.1276 (  1073 PWs)   bands (ev):

   -66.5176 -33.0260 -32.8463 -32.5726  -3.7685  -3.5017   4.5423   5.6715
     8.2747   9.9376  11.4448  12.0970  12.7542  14.7070  16.3229  18.2490
    18.5996  21.6846  22.6113  23.9258  25.3747  28.7987

     occupation numbers 
     1.0000   1.0000   1.0000   1.0000   1.0000   1.0000   1.0000   1.0000
     1.0000   1.0000   1.0000   1.0000   1.0000   1.0000   1.0000   1.0000
     1.0000   0.1493   0.0000   0.0000   0.0000   0.0000

          k = 0.5000-0.2138-0.0165 (  1078 PWs)   bands (ev):

   -66.5177 -33.0272 -32.8458 -32.5723  -4.4635  -2.4551   3.8417   5.9557
     7.7041  10.3582  10.6113  12.1574  13.2716  15.1531  16.5511  18.3195
    19.1347  21.5262  22.1350  24.3854  25.5119  28.0292

     occupation numbers 
     1.0000   1.0000   1.0000   1.0000   1.0000   1.0000   1.0000   1.0000
     1.0000   1.0000   1.0000   1.0000   1.0000   1.0000   1.0000   1.0000
     1.0000   0.4439   0.0004   0.0000   0.0000   0.0000

          k = 0.5000-0.2138 0.0945 (  1081 PWs)   bands (ev):

   -66.5177 -33.0296 -32.8451 -32.5713  -4.9526  -1.2543   2.9174   6.7293
     6.8653   9.0641  11.4911  11.9004  13.5069  15.7672  16.6506  18.3878
    19.5206  21.4445  22.2499  24.5972  25.6328  27.5180

     occupation numbers 
     1.0000   1.0000   1.0000   1.0000   1.0000   1.0000   1.0000   1.0000
     1.0000   1.0000   1.0000   1.0000   1.0000   1.0000   1.0000   1.0000
     1.0000   0.6461   0.0000   0.0000   0.0000   0.0000

          k = 0.5000-0.2138 0.2055 (  1084 PWs)   bands (ev):

   -66.5177 -33.0313 -32.8449 -32.5706  -5.2155  -0.1762   2.0552   6.2119
     7.7210   8.3041  11.2077  12.5658  13.8920  15.5178  16.2603  18.4847
    18.9593  21.5093  23.0019  25.1587  25.6515  27.3594

     occupation numbers 
     1.0000   1.0000   1.0000   1.0000   1.0000   1.0000   1.0000   1.0000
     1.0000   1.0000   1.0000   1.0000   1.0000   1.0000   1.0000   1.0000
     1.0000   0.4847   0.0000   0.0000   0.0000   0.0000

          k = 0.5000-0.2138-0.4607 (  1084 PWs)   bands (ev):

   -66.5177 -33.0307 -32.8452 -32.5707  -5.2295  -0.3415   2.2331   6.1706
     7.8878   8.4227  11.6444  13.1293  13.7098  15.0368  15.2739  17.5126
    19.2054  21.6089  23.6840  25.2294  25.9594  27.7147

     occupation numbers 
     1.0000   1.0000   1.0000   1.0000   1.0000   1.0000   1.0000   1.0000
     1.0000   1.0000   1.0000   1.0000   1.0000   1.0000   1.0000   1.0000
     1.0000   0.2674   0.0000   0.0000   0.0000   0.0000

          k = 0.5000-0.2138-0.3496 (  1078 PWs)   bands (ev):

   -66.5176 -33.0287 -32.8457 -32.5715  -4.9605  -1.5530   3.3275   6.4651
     7.5599   9.1870  11.7231  13.1421  13.8173  13.9219  15.0396  17.3213
    19.2521  21.6994  23.7607  24.8045  25.6949  28.5782

     occupation numbers 
     1.0000   1.0000   1.0000   1.0000   1.0000   1.0000   1.0000   1.0000
     1.0000   1.0000   1.0000   1.0000   1.0000   1.0000   1.0000   1.0000
     1.0000   0.1315   0.0000   0.0000   0.0000   0.0000

          k = 0.5000-0.2138-0.2386 (  1079 PWs)   bands (ev):

   -66.5177 -33.0268 -32.8463 -32.5724  -4.3933  -2.7517   4.2041   6.4253
     7.6093  10.0846  11.5664  11.6846  13.3580  14.6055  15.6351  17.6911
    18.8651  21.7251  23.3381  24.2209  25.2622  29.3309

     occupation numbers 
     1.0000   1.0000   1.0000   1.0000   1.0000   1.0000   1.0000   1.0000
     1.0000   1.0000   1.0000   1.0000   1.0000   1.0000   1.0000   1.0000
     1.0000   0.1042   0.0000   0.0000   0.0000   0.0000

          k = 0.5000-0.3146-0.0971 (  1073 PWs)   bands (ev):

   -66.5175 -33.0257 -32.8482 -32.5737  -3.6397  -3.5285   4.5229   5.2699
     7.8930  10.3694  11.1852  12.4164  13.0406  15.0357  15.5808  18.3450
    19.7120  21.7372  21.8929  24.0597  25.7655  28.2326

     occupation numbers 
     1.0000   1.0000   1.0000   1.0000   1.0000   1.0000   1.0000   1.0000
     1.0000   1.0000   1.0000   1.0000   1.0000   1.0000   1.0000   1.0000
     1.0000   0.0930   0.0163   0.0000   0.0000   0.0000

          k = 0.5000-0.3146 0.0140 (  1074 PWs)   bands (ev):

   -66.5175 -33.0268 -32.8478 -32.5732  -4.3886  -2.5203   3.8643   5.8846
     7.4652  10.2624  10.8941  12.6350  12.9383  15.3217  15.8041  18.3874
    19.8917  21.6360  21.9889  24.2942  25.7546  28.0535

     occupation numbers 
     1.0000   1.0000   1.0000   1.0000   1.0000   1.0000   1.0000   1.0000
     1.0000   1.0000   1.0000   1.0000   1.0000   1.0000   1.0000   1.0000
     1.0000   0.2199   0.0043   0.0000   0.0000   0.0000

          k = 0.5000-0.3146 0.1250 (  1074 PWs)   bands (ev):

   -66.5174 -33.0287 -32.8474 -32.5723  -4.9228  -1.3539   2.9725   6.6719
     7.0225   9.0455  11.7778  12.1272  13.2087  15.3889  15.9984  18.5687
    19.3919  21.6263  22.7748  24.8854  25.8556  27.8402

     occupation numbers 
     1.0000   1.0000   1.0000   1.0000   1.0000   1.0000   1.0000   1.0000
     1.0000   1.0000   1.0000   1.0000   1.0000   1.0000   1.0000   1.0000
     1.0000   0.2361   0.0000   0.0000   0.0000   0.0000

          k = 0.5000-0.3146 0.2360 (  1072 PWs)   bands (ev):

   -66.5174 -33.0302 -32.8471 -32.5717  -5.2097  -0.2132   1.9873   6.3705
     7.5213   8.6561  11.7663  12.6442  13.4027  14.8353  15.8710  18.1587
    19.2531  21.6070  23.4790  25.9187  26.0924  27.4700

     occupation numbers 
     1.0000   1.0000   1.0000   1.0000   1.0000   1.0000   1.0000   1.0000
     1.0000   1.0000   1.0000   1.0000   1.0000   1.0000   1.0000   1.0000
     1.0000   0.2708   0.0000   0.0000   0.0000   0.0000

          k = 0.5000-0.3146-0.4302 (  1070 PWs)   bands (ev):

   -66.5174 -33.0300 -32.8471 -32.5717  -5.2156  -0.2920   2.0712   6.3810
     7.5038   8.7890  12.1464  12.9199  13.1190  14.4493  15.5873  17.7359
    19.4203  21.6419  23.7326  25.8245  26.3674  27.6084

     occupation numbers 
     1.0000   1.0000   1.0000   1.0000   1.0000   1.0000   1.0000   1.0000
     1.0000   1.0000   1.0000   1.0000   1.0000   1.0000   1.0000   1.0000
     1.0000   0.2104   0.0000   0.0000   0.0000   0.0000

          k = 0.5000-0.3146-0.3191 (  1074 PWs)   bands (ev):

   -66.5174 -33.0285 -32.8476 -32.5723  -4.9253  -1.4906   3.1444   6.7437
     7.1112   9.2556  11.4719  12.6429  13.6791  14.7285  15.1070  18.1297
    19.2714  21.7110  23.4304  25.1709  25.7794  28.2758

     occupation numbers 
     1.0000   1.0000   1.0000   1.0000   1.0000   1.0000   1.0000   1.0000
     1.0000   1.0000   1.0000   1.0000   1.0000   1.0000   1.0000   1.0000
     1.0000   0.1186   0.0000   0.0000   0.0000   0.0000

          k = 0.5000-0.3146-0.2081 (  1074 PWs)   bands (ev):

   -66.5175 -33.0265 -32.8480 -32.5734  -4.3527  -2.6610   4.0133   6.1433
     7.4081  10.0761  11.4489  12.0886  13.1381  15.1063  15.4936  18.4026
    19.2584  21.7405  22.6957  24.2394  25.6072  28.4925

     occupation numbers 
     1.0000   1.0000   1.0000   1.0000   1.0000   1.0000   1.0000   1.0000
     1.0000   1.0000   1.0000   1.0000   1.0000   1.0000   1.0000   1.0000
     1.0000   0.0901   0.0000   0.0000   0.0000   0.0000

     the Fermi energy is    21.5448 ev

!    total energy              =    -409.49958155 Ry
     estimated scf accuracy    <          4.0E-10 Ry
     smearing contrib. (-TS)   =      -0.00084559 Ry
     internal energy E=F+TS    =    -409.49873596 Ry

     The total energy is F=E-TS. E is the sum of the following terms:
     one-electron contribution =    -102.65690657 Ry
     hartree contribution      =      82.92567330 Ry
     xc contribution           =     -57.79089044 Ry
     ewald contribution        =    -255.80772003 Ry
     one-center paw contrib.   =     -76.16889222 Ry
      -> PAW hartree energy AE =     235.30107958 Ry
      -> PAW hartree energy PS =    -234.42469994 Ry
      -> PAW xc energy AE      =    -112.84621755 Ry
      -> PAW xc energy PS      =      35.80094569 Ry
      -> total E_H with PAW    =      83.80205294 Ry
      -> total E_XC with PAW   =    -134.83616230 Ry

     convergence has been achieved in  11 iterations

     Forces acting on atoms (cartesian axes, Ry/au):

     atom    1 type  1   force =     0.00000000    0.00000000    0.00000000
     atom    2 type  2   force =    -0.01078562    0.00954294    0.05584648
     atom    3 type  2   force =     0.01078562   -0.00954294   -0.05584648
     atom    4 type  2   force =    -0.01278078   -0.02632802   -0.02046794
     atom    5 type  2   force =     0.01278078    0.02632802    0.02046794
     The non-local contrib.  to forces
     atom    1 type  1   force =     0.00000000    0.00000000    0.00000000
     atom    2 type  2   force =     0.58741266   -0.53242975    1.38320976
     atom    3 type  2   force =    -0.58741266    0.53242975   -1.38320976
     atom    4 type  2   force =     0.24223205   -1.25837580   -0.44569572
     atom    5 type  2   force =    -0.24223205    1.25837580    0.44569572
     The ionic contribution  to forces
     atom    1 type  1   force =     0.00000000    0.00000000   -0.00000000
     atom    2 type  2   force =    -1.53675687    0.10355708    0.95299902
     atom    3 type  2   force =     1.53675687   -0.10355708   -0.95299902
     atom    4 type  2   force =    -0.63576695   -2.23385106   -2.12190492
     atom    5 type  2   force =     0.63576695    2.23385106    2.12190492
     The local contribution  to forces
     atom    1 type  1   force =     0.00000000    0.00000000    0.00000000
     atom    2 type  2   force =     0.94292577    0.43472842   -2.26880405
     atom    3 type  2   force =    -0.94292577   -0.43472842    2.26880405
     atom    4 type  2   force =     0.38259274    3.45509750    2.54357792
     atom    5 type  2   force =    -0.38259274   -3.45509750   -2.54357792
     The core correction contribution to forces
     atom    1 type  1   force =    -0.00000000   -0.00000000   -0.00000000
     atom    2 type  2   force =    -0.00436281    0.00367631   -0.01154789
     atom    3 type  2   force =     0.00436281   -0.00367631    0.01154789
     atom    4 type  2   force =    -0.00183607    0.01078635    0.00354292
     atom    5 type  2   force =     0.00183607   -0.01078635   -0.00354292
     The Hubbard contrib.    to forces
     atom    1 type  1   force =     0.00000000    0.00000000    0.00000000
     atom    2 type  2   force =     0.00000000    0.00000000    0.00000000
     atom    3 type  2   force =     0.00000000    0.00000000    0.00000000
     atom    4 type  2   force =     0.00000000    0.00000000    0.00000000
     atom    5 type  2   force =     0.00000000    0.00000000    0.00000000
     The SCF correction term to forces
     atom    1 type  1   force =     0.00000000    0.00000000   -0.00000000
     atom    2 type  2   force =    -0.00000436    0.00001088   -0.00001036
     atom    3 type  2   force =     0.00000436   -0.00001088    0.00001036
     atom    4 type  2   force =    -0.00000255    0.00001499    0.00001186
     atom    5 type  2   force =     0.00000255   -0.00001499   -0.00001186

     Total force =     0.095934     Total SCF correction =     0.000035


     Computing stress (Cartesian axis) and pressure

          total   stress  (Ry/bohr**3)                   (kbar)     P=     1674.91
   0.01165657   0.00025498   0.00027465         1714.74       37.51       40.40
   0.00025498   0.01184022  -0.00001267           37.51     1741.76       -1.86
   0.00027465  -0.00001267   0.01066057           40.40       -1.86     1568.22

     kinetic stress (kbar)  67201.86   1035.98    726.85
                             1035.98  65294.98   -509.74
                              726.85   -509.74  64194.11

     local   stress (kbar)  13265.94   8999.79   -754.59
                             8999.79  15541.79   3584.94
                             -754.59   3584.94  27968.06

     nonloc. stress (kbar) -21326.48    147.72   -123.25
                              147.72 -21954.25    302.94
                             -123.25    302.94 -22066.51

     hartree stress (kbar)  27089.02  -2261.19    550.30
                            -2261.19  23314.62  -1494.32
                              550.30  -1494.32  17244.56

     exc-cor stress (kbar)  -5702.39    -23.53     -8.29
                              -23.53  -5657.77      1.82
                               -8.29      1.82  -5640.50

     corecor stress (kbar)  -8365.44      0.21      1.23
                                0.21  -8350.64     -4.53
                                1.23     -4.53  -8346.21

     ewald   stress (kbar) -70447.77  -7861.46   -351.84
                            -7861.46 -66446.97  -1882.99
                             -351.84  -1882.99 -71785.30

     hubbard stress (kbar)      0.00      0.00      0.00
                                0.00      0.00      0.00
                                0.00      0.00      0.00

     DFT-D   stress (kbar)      0.00      0.00      0.00
                                0.00      0.00      0.00
                                0.00      0.00      0.00

     XDM     stress (kbar)      0.00      0.00      0.00
                                0.00      0.00      0.00
                                0.00      0.00      0.00

     dft-nl  stress (kbar)      0.00      0.00      0.00
                                0.00      0.00      0.00
                                0.00      0.00      0.00

     TS-vdW  stress (kbar)      0.00      0.00      0.00
                                0.00      0.00      0.00
                                0.00      0.00      0.00



     Writing output data file ./out/aiida.save/
 
     init_run     :      4.70s CPU      4.81s WALL (       1 calls)
     electrons    :     98.07s CPU     99.15s WALL (       1 calls)
     forces       :      0.96s CPU      0.99s WALL (       1 calls)
     stress       :      4.60s CPU      4.68s WALL (       1 calls)

     Called by init_run:
     wfcinit      :      3.56s CPU      3.61s WALL (       1 calls)
     wfcinit:atom :      0.05s CPU      0.06s WALL (     246 calls)
     wfcinit:wfcr :      3.18s CPU      3.23s WALL (     246 calls)
     potinit      :      0.49s CPU      0.49s WALL (       1 calls)
     hinit0       :      0.55s CPU      0.57s WALL (       1 calls)

     Called by electrons:
     c_bands      :     81.06s CPU     81.57s WALL (      11 calls)
     sum_band     :     13.93s CPU     14.24s WALL (      11 calls)
     v_of_rho     :      0.37s CPU      0.38s WALL (      12 calls)
     v_h          :      0.01s CPU      0.01s WALL (      12 calls)
     v_xc         :      0.42s CPU      0.42s WALL (      14 calls)
     newd         :      0.91s CPU      1.18s WALL (      12 calls)
     PAW_pot      :      2.03s CPU      2.03s WALL (      12 calls)
     mix_rho      :      0.03s CPU      0.03s WALL (      11 calls)

     Called by c_bands:
     init_us_2    :      1.81s CPU      1.82s WALL (    6150 calls)
     cegterg      :     77.96s CPU     78.45s WALL (    2706 calls)

     Called by sum_band:
     sum_band:wei :      0.04s CPU      0.04s WALL (      11 calls)
     sum_band:loo :     12.85s CPU     12.93s WALL (      11 calls)
     sum_band:buf :      0.08s CPU      0.08s WALL (    2706 calls)
     sum_band:ini :      0.78s CPU      0.78s WALL (    2706 calls)
     sum_band:cal :      0.62s CPU      0.62s WALL (    2706 calls)
     sum_band:bec :      0.02s CPU      0.02s WALL (    2706 calls)
     addusdens    :      1.00s CPU      1.23s WALL (      11 calls)
     addusd:skk   :      0.00s CPU      0.01s WALL (      22 calls)
     addusd:dgemm :      0.08s CPU      0.29s WALL (      22 calls)
     addusd:qvan2 :      0.84s CPU      0.84s WALL (      22 calls)

     Called by *egterg:
     cdiaghg      :      5.63s CPU      5.67s WALL (    9916 calls)
     cegterg:over :      2.48s CPU      2.50s WALL (    7210 calls)
     cegterg:upda :      1.70s CPU      1.71s WALL (    7210 calls)
     cegterg:last :      0.68s CPU      0.68s WALL (    2706 calls)
     h_psi        :     65.71s CPU     66.15s WALL (   10162 calls)
     s_psi        :      1.75s CPU      1.77s WALL (   10162 calls)
     g_psi        :      0.92s CPU      0.93s WALL (    7210 calls)

     Called by h_psi:
     h_psi:calbec :      1.91s CPU      1.93s WALL (   10162 calls)
     vloc_psi     :     61.56s CPU     61.97s WALL (   10162 calls)
     add_vuspsi   :      1.73s CPU      1.74s WALL (   10162 calls)

     General routines
     calbec       :      2.78s CPU      2.80s WALL (   14098 calls)
     fft          :      0.10s CPU      0.12s WALL (     179 calls)
     ffts         :      0.00s CPU      0.00s WALL (      23 calls)
     fftw         :     52.85s CPU     53.21s WALL (  381252 calls)
     interpolate  :      0.01s CPU      0.01s WALL (      12 calls)
 

     PAW routines
     PAW_pot      :      2.03s CPU      2.03s WALL (      12 calls)
     PAW_symme    :      0.00s CPU      0.00s WALL (      23 calls)
 
     PWSCF        :   1m49.51s CPU   1m51.08s WALL

 
   This run was terminated on:  11:35:41  19Apr2020            

=------------------------------------------------------------------------------=
   JOB DONE.
=------------------------------------------------------------------------------=
