
     Program PWSCF v.5.0.2 (svn rev. 9656) starts on 23Nov2013 at 17:52:56 

     This program is part of the open-source Quantum ESPRESSO suite
     for quantum simulation of materials; please cite
         "P. Giannozzi et al., J. Phys.:Condens. Matter 21 395502 (2009);
          URL http://www.quantum-espresso.org", 
     in publications or presentations arising from this work. More details at
     http://www.quantum-espresso.org/quote.php

     Parallel version (MPI), running on     2 processors
     K-points division:     npool     =       2

     Current dimensions of program PWSCF are:
     Max number of different atomic species (ntypx) = 10
     Max number of k-points (npk) =  40000
     Max angular momentum in pseudopotentials (lmaxx) =  3
     Reading input from BaTiO3.scf

     Subspace diagonalization in iterative solution of the eigenvalue problem:
     a serial algorithm will be used


     G-vector sticks info
     --------------------
     sticks:   dense  smooth     PW     G-vecs:    dense   smooth      PW
     Sum        1757     697    221                55707    13997    2469



     bravais-lattice index     =            1
     lattice parameter (alat)  =       7.4427  a.u.
     unit-cell volume          =     412.2727 (a.u.)^3
     number of atoms/cell      =            5
     number of atomic types    =            3
     number of electrons       =        40.00
     number of Kohn-Sham states=           20
     kinetic-energy cutoff     =      40.0000  Ry
     charge density cutoff     =     400.0000  Ry
     convergence threshold     =      1.0E-10
     mixing beta               =       0.7000
     number of iterations used =            8  plain     mixing
     Exchange-correlation      = SLA  PW   PBE  PBE ( 1 4 3 4 0)
     EXX-fraction              =        0.00

     celldm(1)=   7.442660  celldm(2)=   0.000000  celldm(3)=   0.000000
     celldm(4)=   0.000000  celldm(5)=   0.000000  celldm(6)=   0.000000

     crystal axes: (cart. coord. in units of alat)
               a(1) = (   1.000000   0.000000   0.000000 )  
               a(2) = (   0.000000   1.000000   0.000000 )  
               a(3) = (   0.000000   0.000000   1.000000 )  

     reciprocal axes: (cart. coord. in units 2 pi/alat)
               b(1) = (  1.000000  0.000000  0.000000 )  
               b(2) = (  0.000000  1.000000  0.000000 )  
               b(3) = (  0.000000  0.000000  1.000000 )  


     PseudoPot. # 1 for O  read from file:
     ../pseudo/O.pbe-van_ak.UPF
     MD5 check sum: 78c19812648e8988a0fe644b0f25305e
     Pseudo is Ultrasoft, Zval =  6.0
     Generated by new atomic code, or converted to UPF format
     Using radial grid of  737 points,  4 beta functions with: 
                l(1) =   0
                l(2) =   0
                l(3) =   1
                l(4) =   1
     Q(r) pseudized with  8 coefficients,  rinner =    0.800   0.800   0.800


     PseudoPot. # 2 for Ti read from file:
     ../pseudo/Ti.pbe-sp-van_ak.UPF
     MD5 check sum: 8e4df49b7f0d34bbd5052bf3f5ea0213
     Pseudo is Ultrasoft, Zval = 12.0
     Generated by new atomic code, or converted to UPF format
     Using radial grid of  851 points,  6 beta functions with: 
                l(1) =   0
                l(2) =   0
                l(3) =   1
                l(4) =   1
                l(5) =   2
                l(6) =   2
     Q(r) pseudized with  8 coefficients,  rinner =    1.000   1.000   1.000
                                                       1.000   1.000

     PseudoPot. # 3 for ba read from file:
     ../pseudo/Ba-vdb-usp-pbe.UPF
     MD5 check sum: 0d37213a1bd7f8706775231ea1471c4b
     Pseudo is Ultrasoft, Zval = 10.0
     Generated by new atomic code, or converted to UPF format
     Using radial grid of  881 points,  6 beta functions with: 
                l(1) =   0
                l(2) =   0
                l(3) =   1
                l(4) =   1
                l(5) =   2
                l(6) =   2
     Q(r) pseudized with  8 coefficients,  rinner =    0.800   0.800   0.800
                                                       0.800   0.800

     atomic species   valence    mass     pseudopotential
        O              6.00     8.00000     O ( 1.00)
        Ti            12.00    22.00000     Ti( 1.00)
        Ba            10.00    56.00000     ba( 1.00)

     48 Sym. Ops., with inversion, found



   Cartesian axes

     site n.     atom                  positions (alat units)
         1           Ba  tau(   1) = (   0.0000000   0.0000000   0.0000000  )
         2           Ti  tau(   2) = (   0.5000000   0.5000000   0.5000000  )
         3           O   tau(   3) = (   0.0000000   0.5000000   0.5000000  )
         4           O   tau(   4) = (   0.5000000   0.5000000   0.0000000  )
         5           O   tau(   5) = (   0.5000000   0.0000000   0.5000000  )

     number of k points=    35
                       cart. coord. in units 2pi/alat
        k(    1) = (   0.0000000   0.0000000   0.0000000), wk =   0.0039063
        k(    2) = (   0.0000000   0.0000000   0.1250000), wk =   0.0234375
        k(    3) = (   0.0000000   0.0000000   0.2500000), wk =   0.0234375
        k(    4) = (   0.0000000   0.0000000   0.3750000), wk =   0.0234375
        k(    5) = (   0.0000000   0.0000000  -0.5000000), wk =   0.0117188
        k(    6) = (   0.0000000   0.1250000   0.1250000), wk =   0.0468750
        k(    7) = (   0.0000000   0.1250000   0.2500000), wk =   0.0937500
        k(    8) = (   0.0000000   0.1250000   0.3750000), wk =   0.0937500
        k(    9) = (   0.0000000   0.1250000  -0.5000000), wk =   0.0468750
        k(   10) = (   0.0000000   0.2500000   0.2500000), wk =   0.0468750
        k(   11) = (   0.0000000   0.2500000   0.3750000), wk =   0.0937500
        k(   12) = (   0.0000000   0.2500000  -0.5000000), wk =   0.0468750
        k(   13) = (   0.0000000   0.3750000   0.3750000), wk =   0.0468750
        k(   14) = (   0.0000000   0.3750000  -0.5000000), wk =   0.0468750
        k(   15) = (   0.0000000  -0.5000000  -0.5000000), wk =   0.0117188
        k(   16) = (   0.1250000   0.1250000   0.1250000), wk =   0.0312500
        k(   17) = (   0.1250000   0.1250000   0.2500000), wk =   0.0937500
        k(   18) = (   0.1250000   0.1250000   0.3750000), wk =   0.0937500
        k(   19) = (   0.1250000   0.1250000  -0.5000000), wk =   0.0468750
        k(   20) = (   0.1250000   0.2500000   0.2500000), wk =   0.0937500
        k(   21) = (   0.1250000   0.2500000   0.3750000), wk =   0.1875000
        k(   22) = (   0.1250000   0.2500000  -0.5000000), wk =   0.0937500
        k(   23) = (   0.1250000   0.3750000   0.3750000), wk =   0.0937500
        k(   24) = (   0.1250000   0.3750000  -0.5000000), wk =   0.0937500
        k(   25) = (   0.1250000  -0.5000000  -0.5000000), wk =   0.0234375
        k(   26) = (   0.2500000   0.2500000   0.2500000), wk =   0.0312500
        k(   27) = (   0.2500000   0.2500000   0.3750000), wk =   0.0937500
        k(   28) = (   0.2500000   0.2500000  -0.5000000), wk =   0.0468750
        k(   29) = (   0.2500000   0.3750000   0.3750000), wk =   0.0937500
        k(   30) = (   0.2500000   0.3750000  -0.5000000), wk =   0.0937500
        k(   31) = (   0.2500000  -0.5000000  -0.5000000), wk =   0.0234375
        k(   32) = (   0.3750000   0.3750000   0.3750000), wk =   0.0312500
        k(   33) = (   0.3750000   0.3750000  -0.5000000), wk =   0.0468750
        k(   34) = (   0.3750000  -0.5000000  -0.5000000), wk =   0.0234375
        k(   35) = (  -0.5000000  -0.5000000  -0.5000000), wk =   0.0039063

     Dense  grid:    55707 G-vectors     FFT dimensions: (  48,  48,  48)

     Smooth grid:    13997 G-vectors     FFT dimensions: (  30,  30,  30)

     Largest allocated arrays     est. size (Mb)     dimensions
        Kohn-Sham Wavefunctions         0.55 Mb     (   1791,   20)
        NL pseudopotentials             1.64 Mb     (   1791,   60)
        Each V/rho on FFT grid          1.69 Mb     ( 110592)
        Each G-vector array             0.43 Mb     (  55707)
        G-vector shells                 0.00 Mb     (    470)
     Largest temporary arrays     est. size (Mb)     dimensions
        Auxiliary wavefunctions         2.19 Mb     (   1791,   80)
        Each subspace H/S matrix        0.10 Mb     (  80,  80)
        Each <psi_i|beta_j> matrix      0.02 Mb     (     60,   20)
        Arrays for rho mixing          13.50 Mb     ( 110592,   8)

     Initial potential from superposition of free atoms

     starting charge   38.98638, renormalised to   40.00000
     Starting wfc are   27 randomized atomic wfcs

     total cpu time spent up to now is       10.6 secs

     per-process dynamical memory:    36.0 Mb

     Self-consistent Calculation

     iteration #  1     ecut=    40.00 Ry     beta=0.70
     Davidson diagonalization with overlap
     ethr =  1.00E-02,  avg # of iterations =  2.0

     total cpu time spent up to now is       16.9 secs

     total energy              =    -264.34092374 Ry
     Harris-Foulkes estimate   =    -264.97776536 Ry
     estimated scf accuracy    <       0.82193342 Ry

     iteration #  2     ecut=    40.00 Ry     beta=0.70
     Davidson diagonalization with overlap
     ethr =  2.05E-03,  avg # of iterations =  5.3

     total cpu time spent up to now is       26.3 secs

     total energy              =    -263.05415705 Ry
     Harris-Foulkes estimate   =    -265.82458243 Ry
     estimated scf accuracy    <      11.94112972 Ry

     iteration #  3     ecut=    40.00 Ry     beta=0.70
     Davidson diagonalization with overlap
     ethr =  2.05E-03,  avg # of iterations =  4.8

     total cpu time spent up to now is       34.9 secs

     total energy              =    -264.79958694 Ry
     Harris-Foulkes estimate   =    -264.87283017 Ry
     estimated scf accuracy    <       0.22070026 Ry

     iteration #  4     ecut=    40.00 Ry     beta=0.70
     Davidson diagonalization with overlap
     ethr =  5.52E-04,  avg # of iterations =  2.1

     total cpu time spent up to now is       41.0 secs

     total energy              =    -264.78795250 Ry
     Harris-Foulkes estimate   =    -264.81440455 Ry
     estimated scf accuracy    <       0.10155769 Ry

     iteration #  5     ecut=    40.00 Ry     beta=0.70
     Davidson diagonalization with overlap
     ethr =  2.54E-04,  avg # of iterations =  3.0

     total cpu time spent up to now is       47.4 secs

     total energy              =    -264.80078178 Ry
     Harris-Foulkes estimate   =    -264.80292568 Ry
     estimated scf accuracy    <       0.00605884 Ry

     iteration #  6     ecut=    40.00 Ry     beta=0.70
     Davidson diagonalization with overlap
     ethr =  1.51E-05,  avg # of iterations =  4.4

     total cpu time spent up to now is       55.1 secs

     total energy              =    -264.80329540 Ry
     Harris-Foulkes estimate   =    -264.80347401 Ry
     estimated scf accuracy    <       0.00054057 Ry

     iteration #  7     ecut=    40.00 Ry     beta=0.70
     Davidson diagonalization with overlap
     ethr =  1.35E-06,  avg # of iterations =  3.5

     total cpu time spent up to now is       61.8 secs

     total energy              =    -264.81284808 Ry
     Harris-Foulkes estimate   =    -264.81285870 Ry
     estimated scf accuracy    <       0.00021254 Ry

     iteration #  8     ecut=    40.00 Ry     beta=0.70
     Davidson diagonalization with overlap
     ethr =  5.31E-07,  avg # of iterations =  1.4

     total cpu time spent up to now is       67.8 secs

     total energy              =    -264.81281068 Ry
     Harris-Foulkes estimate   =    -264.81285490 Ry
     estimated scf accuracy    <       0.00018363 Ry

     iteration #  9     ecut=    40.00 Ry     beta=0.70
     Davidson diagonalization with overlap
     ethr =  4.59E-07,  avg # of iterations =  3.0

     total cpu time spent up to now is       73.9 secs

     total energy              =    -264.82304536 Ry
     Harris-Foulkes estimate   =    -264.82311598 Ry
     estimated scf accuracy    <       0.00068989 Ry

     iteration # 10     ecut=    40.00 Ry     beta=0.70
     Davidson diagonalization with overlap
     ethr =  4.59E-07,  avg # of iterations =  2.5

     total cpu time spent up to now is       80.0 secs

     total energy              =    -264.82300889 Ry
     Harris-Foulkes estimate   =    -264.82305871 Ry
     estimated scf accuracy    <       0.00036207 Ry

     iteration # 11     ecut=    40.00 Ry     beta=0.70
     Davidson diagonalization with overlap
     ethr =  4.59E-07,  avg # of iterations =  2.7

     total cpu time spent up to now is       86.1 secs

     total energy              =    -264.82298633 Ry
     Harris-Foulkes estimate   =    -264.82302206 Ry
     estimated scf accuracy    <       0.00014687 Ry

     iteration # 12     ecut=    40.00 Ry     beta=0.70
     Davidson diagonalization with overlap
     ethr =  3.67E-07,  avg # of iterations =  3.0

     total cpu time spent up to now is       92.9 secs

     total energy              =    -264.82299899 Ry
     Harris-Foulkes estimate   =    -264.82300370 Ry
     estimated scf accuracy    <       0.00001038 Ry

     iteration # 13     ecut=    40.00 Ry     beta=0.70
     Davidson diagonalization with overlap
     ethr =  2.60E-08,  avg # of iterations =  4.1

     total cpu time spent up to now is      100.6 secs

     total energy              =    -264.82300477 Ry
     Harris-Foulkes estimate   =    -264.82300739 Ry
     estimated scf accuracy    <       0.00000867 Ry

     iteration # 14     ecut=    40.00 Ry     beta=0.70
     Davidson diagonalization with overlap
     ethr =  2.17E-08,  avg # of iterations =  2.7

     total cpu time spent up to now is      106.9 secs

     total energy              =    -264.82300536 Ry
     Harris-Foulkes estimate   =    -264.82300552 Ry
     estimated scf accuracy    <       0.00000080 Ry

     iteration # 15     ecut=    40.00 Ry     beta=0.70
     Davidson diagonalization with overlap
     ethr =  1.99E-09,  avg # of iterations =  3.5

     total cpu time spent up to now is      114.2 secs

     total energy              =    -264.82300577 Ry
     Harris-Foulkes estimate   =    -264.82300577 Ry
     estimated scf accuracy    <          7.5E-09 Ry

     iteration # 16     ecut=    40.00 Ry     beta=0.70
     Davidson diagonalization with overlap
     ethr =  1.87E-11,  avg # of iterations =  4.8

     total cpu time spent up to now is      122.6 secs

     total energy              =    -264.82300578 Ry
     Harris-Foulkes estimate   =    -264.82300578 Ry
     estimated scf accuracy    <          4.9E-09 Ry

     iteration # 17     ecut=    40.00 Ry     beta=0.70
     Davidson diagonalization with overlap
     ethr =  1.23E-11,  avg # of iterations =  1.0

     total cpu time spent up to now is      128.4 secs

     total energy              =    -264.82300578 Ry
     Harris-Foulkes estimate   =    -264.82300578 Ry
     estimated scf accuracy    <          2.7E-09 Ry

     iteration # 18     ecut=    40.00 Ry     beta=0.70
     Davidson diagonalization with overlap
     ethr =  6.73E-12,  avg # of iterations =  1.9

     total cpu time spent up to now is      134.5 secs

     total energy              =    -264.82300578 Ry
     Harris-Foulkes estimate   =    -264.82300578 Ry
     estimated scf accuracy    <          3.3E-09 Ry

     iteration # 19     ecut=    40.00 Ry     beta=0.70
     Davidson diagonalization with overlap
     ethr =  6.73E-12,  avg # of iterations =  1.0

     total cpu time spent up to now is      140.3 secs

     total energy              =    -264.82300578 Ry
     Harris-Foulkes estimate   =    -264.82300578 Ry
     estimated scf accuracy    <          3.5E-09 Ry

     iteration # 20     ecut=    40.00 Ry     beta=0.70
     Davidson diagonalization with overlap
     ethr =  6.73E-12,  avg # of iterations =  4.1

     total cpu time spent up to now is      147.8 secs

     total energy              =    -264.82300578 Ry
     Harris-Foulkes estimate   =    -264.82300579 Ry
     estimated scf accuracy    <       0.00000003 Ry

     iteration # 21     ecut=    40.00 Ry     beta=0.70
     Davidson diagonalization with overlap
     ethr =  6.73E-12,  avg # of iterations =  4.4

     total cpu time spent up to now is      156.4 secs

     total energy              =    -264.82300578 Ry
     Harris-Foulkes estimate   =    -264.82300578 Ry
     estimated scf accuracy    <          5.2E-10 Ry

     iteration # 22     ecut=    40.00 Ry     beta=0.70
     Davidson diagonalization with overlap
     ethr =  1.29E-12,  avg # of iterations =  4.7

     total cpu time spent up to now is      165.8 secs

     total energy              =    -264.82300578 Ry
     Harris-Foulkes estimate   =    -264.82300578 Ry
     estimated scf accuracy    <       0.00000002 Ry

     iteration # 23     ecut=    40.00 Ry     beta=0.70
     Davidson diagonalization with overlap
     ethr =  1.29E-12,  avg # of iterations =  4.4

     total cpu time spent up to now is      174.6 secs

     total energy              =    -264.82300578 Ry
     Harris-Foulkes estimate   =    -264.82300578 Ry
     estimated scf accuracy    <          9.4E-10 Ry

     iteration # 24     ecut=    40.00 Ry     beta=0.70
     Davidson diagonalization with overlap
     ethr =  1.29E-12,  avg # of iterations =  1.0

     total cpu time spent up to now is      180.4 secs

     total energy              =    -264.82300578 Ry
     Harris-Foulkes estimate   =    -264.82300578 Ry
     estimated scf accuracy    <          1.1E-09 Ry

     iteration # 25     ecut=    40.00 Ry     beta=0.70
     Davidson diagonalization with overlap
     ethr =  1.29E-12,  avg # of iterations =  1.0

     total cpu time spent up to now is      186.2 secs

     total energy              =    -264.82300578 Ry
     Harris-Foulkes estimate   =    -264.82300578 Ry
     estimated scf accuracy    <          8.3E-10 Ry

     iteration # 26     ecut=    40.00 Ry     beta=0.70
     Davidson diagonalization with overlap
     ethr =  1.29E-12,  avg # of iterations =  1.9

     total cpu time spent up to now is      192.2 secs

     total energy              =    -264.82300578 Ry
     Harris-Foulkes estimate   =    -264.82300578 Ry
     estimated scf accuracy    <          3.4E-10 Ry

     iteration # 27     ecut=    40.00 Ry     beta=0.70
     Davidson diagonalization with overlap
     ethr =  8.55E-13,  avg # of iterations =  1.0

     total cpu time spent up to now is      198.1 secs

     total energy              =    -264.82300578 Ry
     Harris-Foulkes estimate   =    -264.82300578 Ry
     estimated scf accuracy    <          2.9E-10 Ry

     iteration # 28     ecut=    40.00 Ry     beta=0.70
     Davidson diagonalization with overlap
     ethr =  7.15E-13,  avg # of iterations =  3.0

     total cpu time spent up to now is      204.5 secs

     End of self-consistent calculation

          k = 0.0000 0.0000 0.0000 (  1791 PWs)   bands (ev):

   -45.3105 -21.5718 -21.5718 -21.5718 -13.5961  -5.9147  -5.2610  -5.2610
     1.2200   1.2200   1.2200   8.8041   8.8041   8.8041   9.8869   9.8869
     9.8869  10.9846  10.9846  10.9846

          k = 0.0000 0.0000 0.1250 (  1783 PWs)   bands (ev):

   -45.3103 -21.5817 -21.5713 -21.5713 -13.5739  -5.9320  -5.2552  -5.2433
     1.2481   1.2481   1.2975   8.5222   8.7498   8.7498   9.7006   9.7006
     9.7364  10.5742  10.8635  10.8635

          k = 0.0000 0.0000 0.2500 (  1779 PWs)   bands (ev):

   -45.3098 -21.6054 -21.5704 -21.5704 -13.5192  -6.0336  -5.2410  -5.1283
     1.3178   1.3178   1.4821   7.8558   8.5644   8.5644   9.3965   9.3965
     9.4127   9.8370  10.6314  10.6314

          k = 0.0000 0.0000 0.3750 (  1759 PWs)   bands (ev):

   -45.3093 -21.6286 -21.5694 -21.5694 -13.4631  -6.1787  -5.2267  -4.9520
     1.3907   1.3907   1.6645   7.2093   8.3154   8.3154   9.1289   9.2318
     9.2318   9.2812  10.4413  10.4413

          k = 0.0000 0.0000-0.5000 (  1750 PWs)   bands (ev):

   -45.3091 -21.6384 -21.5688 -21.5688 -13.4394  -6.2442  -5.2208  -4.8681
     1.4219   1.4219   1.7397   6.9484   8.2019   8.2019   9.0187   9.0803
     9.1870   9.1870  10.3714  10.3714

          k = 0.0000 0.1250 0.1250 (  1775 PWs)   bands (ev):

   -45.3101 -21.5814 -21.5808 -21.5709 -13.5528  -5.9305  -5.2475  -5.2378
     1.2198   1.2771   1.4003   8.3394   8.6074   8.7113   9.3143   9.5231
     9.9007  10.2918  10.7217  10.7323

          k = 0.0000 0.1250 0.2500 (  1769 PWs)   bands (ev):

   -45.3096 -21.6048 -21.5800 -21.5700 -13.5011  -5.9902  -5.2297  -5.1495
     1.2576   1.3494   1.5381   7.7679   8.3817   8.5581   8.8634   9.2233
     9.6693   9.9134  10.4579  10.5380

          k = 0.0000 0.1250 0.3750 (  1757 PWs)   bands (ev):

   -45.3091 -21.6280 -21.5789 -21.5690 -13.4481  -6.1064  -5.2111  -4.9894
     1.3377   1.4250   1.6276   7.1666   8.2021   8.3178   8.4536   9.0724
     9.3366   9.8781  10.2456  10.2833

          k = 0.0000 0.1250-0.5000 (  1768 PWs)   bands (ev):

   -45.3089 -21.6379 -21.5786 -21.5687 -13.4258  -6.1628  -5.2033  -4.9099
     1.3813   1.4574   1.6524   6.9164   8.1680   8.2043   8.2595   9.0356
     9.2183   9.9503  10.1023  10.1661

          k = 0.0000 0.2500 0.2500 (  1771 PWs)   bands (ev):

   -45.3091 -21.6041 -21.6029 -21.5690 -13.4568  -5.9258  -5.2126  -5.1422
     1.2154   1.4281   1.5655   7.5021   7.9871   8.2765   8.5078   8.8785
     9.5171  10.0091  10.1361  10.6149

          k = 0.0000 0.2500 0.3750 (  1766 PWs)   bands (ev):

   -45.3087 -21.6268 -21.6022 -21.5680 -13.4115  -5.9326  -5.1835  -5.0635
     1.2483   1.5108   1.5125   7.0734   7.6772   7.8562   8.3237   8.7095
     9.5512   9.8785  10.0049  10.6037

          k = 0.0000 0.2500-0.5000 (  1752 PWs)   bands (ev):

   -45.3084 -21.6360 -21.6017 -21.5675 -13.3925  -5.9540  -5.1677  -5.0120
     1.2969   1.4546   1.5464   6.8544   7.5150   7.7834   8.2100   8.6862
     9.6534   9.7829   9.9383  10.5656

          k = 0.0000 0.3750 0.3750 (  1752 PWs)   bands (ev):

   -45.3082 -21.6254 -21.6247 -21.5670 -13.3742  -5.7715  -5.1750  -5.0969
     1.2088   1.3667   1.6014   6.9053   7.2255   7.3273   8.3082   8.3923
     9.5892   9.8264  10.1667  10.8374

          k = 0.0000 0.3750-0.5000 (  1740 PWs)   bands (ev):

   -45.3080 -21.6344 -21.6244 -21.5665 -13.3585  -5.7173  -5.1515  -5.1154
     1.2298   1.2751   1.6404   6.7568   7.0120   7.2334   8.2159   8.3528
     9.4833  10.0721  10.1250  10.8949

          k = 0.0000-0.5000-0.5000 (  1740 PWs)   bands (ev):

   -45.3078 -21.6338 -21.6338 -21.5662 -13.3443  -5.6028  -5.1587  -5.1587
     1.2064   1.2064   1.6811   6.6483   6.8345   7.0617   8.2183   8.2183
     9.3749  10.2416  10.2416  10.9871

          k = 0.1250 0.1250 0.1250 (  1788 PWs)   bands (ev):

   -45.3099 -21.5813 -21.5806 -21.5806 -13.5328  -5.9152  -5.2384  -5.2384
     1.2243   1.2243   1.5199   8.1549   8.5699   8.5699   9.2225   9.2225
     9.9907  10.0434  10.6267  10.6267

          k = 0.1250 0.1250 0.2500 (  1777 PWs)   bands (ev):

   -45.3094 -21.6043 -21.5800 -21.5795 -13.4838  -5.9415  -5.2162  -5.1675
     1.2343   1.2502   1.6489   7.6643   8.2716   8.4387   8.8847   8.9075
     9.5840  10.0207  10.3906  10.4561

          k = 0.1250 0.1250 0.3750 (  1762 PWs)   bands (ev):

   -45.3089 -21.6275 -21.5787 -21.5784 -13.4336  -6.0326  -5.1937  -5.0177
     1.2429   1.3811   1.6625   7.1277   8.0335   8.2834   8.4150   8.7514
     9.6040   9.8852  10.1702  10.1935

          k = 0.1250 0.1250-0.5000 (  1760 PWs)   bands (ev):

   -45.3087 -21.6371 -21.5783 -21.5780 -13.4124  -6.0807  -5.1843  -4.9406
     1.2461   1.5413   1.5586   6.8914   8.0353   8.1441   8.2269   8.6960
     9.7488   9.8228   9.9791  10.0810

          k = 0.1250 0.2500 0.2500 (  1760 PWs)   bands (ev):

   -45.3089 -21.6034 -21.6023 -21.5786 -13.4413  -5.8621  -5.1957  -5.1538
     1.1637   1.2134   1.7178   7.4009   7.9710   8.1609   8.5930   8.7730
     9.2056  10.1549  10.1862  10.5371

          k = 0.1250 0.2500 0.3750 (  1768 PWs)   bands (ev):

   -45.3085 -21.6262 -21.6018 -21.5777 -13.3979  -5.8542  -5.1615  -5.0715
     1.1318   1.2586   1.6520   7.0487   7.6343   7.8927   8.3514   8.6454
     9.2576   9.9577  10.1346  10.5558

          k = 0.1250 0.2500-0.5000 (  1754 PWs)   bands (ev):

   -45.3083 -21.6354 -21.6012 -21.5772 -13.3797  -5.8702  -5.1447  -5.0172
     1.1135   1.3459   1.5576   6.8439   7.5505   7.8026   8.2299   8.6242
     9.3370   9.9638   9.9959  10.5352

          k = 0.1250 0.3750 0.3750 (  1762 PWs)   bands (ev):

   -45.3080 -21.6249 -21.6245 -21.5767 -13.3616  -5.6877  -5.1503  -5.0849
     1.1017   1.1451   1.5612   6.9140   7.3244   7.3767   8.3675   8.4541
     9.1265   9.9824  10.2636  10.8216

          k = 0.1250 0.3750-0.5000 (  1740 PWs)   bands (ev):

   -45.3078 -21.6338 -21.6239 -21.5761 -13.3463  -5.6312  -5.1243  -5.0968
     1.0694   1.1516   1.4932   6.7607   7.2374   7.2470   8.2931   8.4426
     9.0548  10.1828  10.1891  10.8936

          k = 0.1250-0.5000-0.5000 (  1744 PWs)   bands (ev):

   -45.3076 -21.6334 -21.6334 -21.5758 -13.3323  -5.5144  -5.1307  -5.1307
     1.0766   1.0766   1.4425   6.6536   7.0646   7.1581   8.3363   8.3363
     8.9249  10.3058  10.3058  10.9992

          k = 0.2500 0.2500 0.2500 (  1749 PWs)   bands (ev):

   -45.3084 -21.6024 -21.6013 -21.6013 -13.4033  -5.7319  -5.1540  -5.1540
     1.0383   1.0383   1.7268   7.2340   7.9348   7.9348   8.4849   8.6491
     8.6491  10.3490  10.3490  10.4440

          k = 0.2500 0.2500 0.3750 (  1762 PWs)   bands (ev):

   -45.3080 -21.6248 -21.6010 -21.6004 -13.3646  -5.6630  -5.1111  -5.0854
     0.9122   1.0288   1.5548   7.0242   7.5845   7.9074   8.0763   8.6129
     8.7652  10.1814  10.4549  10.5336

          k = 0.2500 0.2500-0.5000 (  1756 PWs)   bands (ev):

   -45.3078 -21.6342 -21.6004 -21.6000 -13.3484  -5.6563  -5.0930  -5.0323
     0.8598   1.0979   1.4080   6.8254   7.6417   7.8261   7.9004   8.6132
     8.8623  10.1119  10.4597  10.5394

          k = 0.2500 0.3750 0.3750 (  1760 PWs)   bands (ev):

   -45.3075 -21.6237 -21.6234 -21.5996 -13.3308  -5.4790  -5.0888  -5.0560
     0.8080   0.8522   1.3052   6.9370   7.3222   7.7102   8.0373   8.5696
     8.6821  10.3177  10.5009  10.8083

          k = 0.2500 0.3750-0.5000 (  1752 PWs)   bands (ev):

   -45.3073 -21.6328 -21.6228 -21.5992 -13.3166  -5.4141  -5.0578  -5.0515
     0.7470   0.8684   1.1364   6.7630   7.2476   7.7744   7.9537   8.5935
     8.6547  10.3886  10.5092  10.9008

          k = 0.2500-0.5000-0.5000 (  1764 PWs)   bands (ev):

   -45.3071 -21.6324 -21.6324 -21.5988 -13.3033  -5.2924  -5.0608  -5.0608
     0.7784   0.7784   0.9516   6.6546   7.0708   7.8545   8.0091   8.5530
     8.5530  10.5385  10.5385  11.0279

          k = 0.3750 0.3750 0.3750 (  1754 PWs)   bands (ev):

   -45.3070 -21.6226 -21.6221 -21.6221 -13.2996  -5.2636  -5.0241  -5.0241
     0.6128   0.6128   0.9578   6.8656   7.3241   7.3241   8.1653   8.6480
     8.6480  10.6838  10.6838  10.8778

          k = 0.3750 0.3750-0.5000 (  1758 PWs)   bands (ev):

   -45.3069 -21.6317 -21.6219 -21.6217 -13.2865  -5.1763  -5.0058  -4.9964
     0.5160   0.6026   0.7566   6.7025   7.2164   7.3253   8.2668   8.6714
     8.6797  10.7187  10.8311  10.9543

          k = 0.3750-0.5000-0.5000 (  1756 PWs)   bands (ev):

   -45.3067 -21.6312 -21.6312 -21.6213 -13.2739  -5.0569  -4.9867  -4.9867
     0.4967   0.4967   0.5387   6.5923   7.0778   7.2866   8.4721   8.6803
     8.6803  10.8901  10.8901  11.0587

          k =-0.5000-0.5000-0.5000 (  1736 PWs)   bands (ev):

   -45.3065 -21.6305 -21.6305 -21.6305 -13.2616  -4.9547  -4.9547  -4.9547
     0.3836   0.3836   0.3836   6.4971   7.0808   7.0808   8.7116   8.7116
     8.7116  11.0719  11.0719  11.0719

!    total energy              =    -264.82300578 Ry
     Harris-Foulkes estimate   =    -264.82300578 Ry
     estimated scf accuracy    <          1.7E-11 Ry

     The total energy is the sum of the following terms:

     one-electron contribution =     -69.51423437 Ry
     hartree contribution      =      59.06681820 Ry
     xc contribution           =     -43.67558404 Ry
     ewald contribution        =    -210.70000557 Ry

     convergence has been achieved in  28 iterations

     Writing output data file batio3.save

     init_run     :     10.23s CPU     10.41s WALL (       1 calls)
     electrons    :    186.31s CPU    193.95s WALL (       1 calls)

     Called by init_run:
     wfcinit      :      2.04s CPU      2.11s WALL (       1 calls)
     potinit      :      0.47s CPU      0.50s WALL (       1 calls)

     Called by electrons:
     c_bands      :    104.91s CPU    109.24s WALL (      28 calls)
     sum_band     :     42.39s CPU     44.03s WALL (      28 calls)
     v_of_rho     :      5.69s CPU      6.06s WALL (      29 calls)
     newd         :     33.19s CPU     34.35s WALL (      29 calls)
     mix_rho      :      0.55s CPU      0.57s WALL (      28 calls)

     Called by c_bands:
     init_us_2    :      4.32s CPU      4.82s WALL (    1026 calls)
     cegterg      :     98.37s CPU    101.60s WALL (     504 calls)

     Called by *egterg:
     h_psi        :     65.64s CPU     67.88s WALL (    2041 calls)
     s_psi        :      8.43s CPU      8.65s WALL (    2041 calls)
     g_psi        :      0.43s CPU      0.46s WALL (    1519 calls)
     cdiaghg      :      3.50s CPU      3.61s WALL (    2023 calls)

     Called by h_psi:
     add_vuspsi   :      8.49s CPU      8.70s WALL (    2041 calls)

     General routines
     calbec       :     12.05s CPU     12.38s WALL (    2545 calls)
     fft          :      1.95s CPU      2.04s WALL (     459 calls)
     ffts         :      0.05s CPU      0.06s WALL (      57 calls)
     fftw         :     44.42s CPU     45.96s WALL (   63922 calls)
     interpolate  :      0.35s CPU      0.36s WALL (      57 calls)
     davcio       :      0.46s CPU      1.03s WALL (    1530 calls)

     Parallel routines
     fft_scatter  :      3.31s CPU      3.54s WALL (   64438 calls)

     PWSCF        :  3m16.86s CPU     3m24.76s WALL


   This run was terminated on:  17:56:20  23Nov2013            

=------------------------------------------------------------------------------=
   JOB DONE.
=------------------------------------------------------------------------------=
