
     Program PWSCF v.5.0.2 (svn rev. 9656) starts on 23Nov2013 at 17:57:35 

     This program is part of the open-source Quantum ESPRESSO suite
     for quantum simulation of materials; please cite
         "P. Giannozzi et al., J. Phys.:Condens. Matter 21 395502 (2009);
          URL http://www.quantum-espresso.org", 
     in publications or presentations arising from this work. More details at
     http://www.quantum-espresso.org/quote.php

     Parallel version (MPI), running on     2 processors
     K-points division:     npool     =       2

     Current dimensions of program PWSCF are:
     Max number of different atomic species (ntypx) = 10
     Max number of k-points (npk) =  40000
     Max angular momentum in pseudopotentials (lmaxx) =  3
     Reading input from BaTiO3.bands

     Atomic positions and unit cell read from directory:
     ./tmp/batio3.save/


     Subspace diagonalization in iterative solution of the eigenvalue problem:
     a serial algorithm will be used


     G-vector sticks info
     --------------------
     sticks:   dense  smooth     PW     G-vecs:    dense   smooth      PW
     Sum        1757     697    221                55707    13997    2469



     bravais-lattice index     =            1
     lattice parameter (alat)  =       7.4427  a.u.
     unit-cell volume          =     412.2727 (a.u.)^3
     number of atoms/cell      =            5
     number of atomic types    =            3
     number of electrons       =        40.00
     number of Kohn-Sham states=           20
     kinetic-energy cutoff     =      40.0000  Ry
     charge density cutoff     =     400.0000  Ry
     Exchange-correlation      = SLA  PW   PBE  PBE ( 1 4 3 4 0)
     EXX-fraction              =        0.00

     celldm(1)=   7.442660  celldm(2)=   0.000000  celldm(3)=   0.000000
     celldm(4)=   0.000000  celldm(5)=   0.000000  celldm(6)=   0.000000

     crystal axes: (cart. coord. in units of alat)
               a(1) = (   1.000000   0.000000   0.000000 )  
               a(2) = (   0.000000   1.000000   0.000000 )  
               a(3) = (   0.000000   0.000000   1.000000 )  

     reciprocal axes: (cart. coord. in units 2 pi/alat)
               b(1) = (  1.000000  0.000000  0.000000 )  
               b(2) = (  0.000000  1.000000  0.000000 )  
               b(3) = (  0.000000  0.000000  1.000000 )  


     PseudoPot. # 1 for O  read from file:
     ../pseudo/O.pbe-van_ak.UPF
     MD5 check sum: 78c19812648e8988a0fe644b0f25305e
     Pseudo is Ultrasoft, Zval =  6.0
     Generated by new atomic code, or converted to UPF format
     Using radial grid of  737 points,  4 beta functions with: 
                l(1) =   0
                l(2) =   0
                l(3) =   1
                l(4) =   1
     Q(r) pseudized with  8 coefficients,  rinner =    0.800   0.800   0.800


     PseudoPot. # 2 for Ti read from file:
     ../pseudo/Ti.pbe-sp-van_ak.UPF
     MD5 check sum: 8e4df49b7f0d34bbd5052bf3f5ea0213
     Pseudo is Ultrasoft, Zval = 12.0
     Generated by new atomic code, or converted to UPF format
     Using radial grid of  851 points,  6 beta functions with: 
                l(1) =   0
                l(2) =   0
                l(3) =   1
                l(4) =   1
                l(5) =   2
                l(6) =   2
     Q(r) pseudized with  8 coefficients,  rinner =    1.000   1.000   1.000
                                                       1.000   1.000

     PseudoPot. # 3 for ba read from file:
     ../pseudo/Ba-vdb-usp-pbe.UPF
     MD5 check sum: 0d37213a1bd7f8706775231ea1471c4b
     Pseudo is Ultrasoft, Zval = 10.0
     Generated by new atomic code, or converted to UPF format
     Using radial grid of  881 points,  6 beta functions with: 
                l(1) =   0
                l(2) =   0
                l(3) =   1
                l(4) =   1
                l(5) =   2
                l(6) =   2
     Q(r) pseudized with  8 coefficients,  rinner =    0.800   0.800   0.800
                                                       0.800   0.800

     atomic species   valence    mass     pseudopotential
        O              6.00     8.00000     O ( 1.00)
        Ti            12.00    22.00000     Ti( 1.00)
        Ba            10.00    56.00000     ba( 1.00)

     48 Sym. Ops., with inversion, found


                                    s                        frac. trans.

      isym =  1     identity                                     

 cryst.   s( 1) = (     1          0          0      )
                  (     0          1          0      )
                  (     0          0          1      )

 cart.    s( 1) = (  1.0000000  0.0000000  0.0000000 )
                  (  0.0000000  1.0000000  0.0000000 )
                  (  0.0000000  0.0000000  1.0000000 )


      isym =  2     180 deg rotation - cart. axis [0,0,1]        

 cryst.   s( 2) = (    -1          0          0      )
                  (     0         -1          0      )
                  (     0          0          1      )

 cart.    s( 2) = ( -1.0000000  0.0000000  0.0000000 )
                  (  0.0000000 -1.0000000  0.0000000 )
                  (  0.0000000  0.0000000  1.0000000 )


      isym =  3     180 deg rotation - cart. axis [0,1,0]        

 cryst.   s( 3) = (    -1          0          0      )
                  (     0          1          0      )
                  (     0          0         -1      )

 cart.    s( 3) = ( -1.0000000  0.0000000  0.0000000 )
                  (  0.0000000  1.0000000  0.0000000 )
                  (  0.0000000  0.0000000 -1.0000000 )


      isym =  4     180 deg rotation - cart. axis [1,0,0]        

 cryst.   s( 4) = (     1          0          0      )
                  (     0         -1          0      )
                  (     0          0         -1      )

 cart.    s( 4) = (  1.0000000  0.0000000  0.0000000 )
                  (  0.0000000 -1.0000000  0.0000000 )
                  (  0.0000000  0.0000000 -1.0000000 )


      isym =  5     180 deg rotation - cart. axis [1,1,0]        

 cryst.   s( 5) = (     0          1          0      )
                  (     1          0          0      )
                  (     0          0         -1      )

 cart.    s( 5) = (  0.0000000  1.0000000  0.0000000 )
                  (  1.0000000  0.0000000  0.0000000 )
                  (  0.0000000  0.0000000 -1.0000000 )


      isym =  6     180 deg rotation - cart. axis [1,-1,0]       

 cryst.   s( 6) = (     0         -1          0      )
                  (    -1          0          0      )
                  (     0          0         -1      )

 cart.    s( 6) = (  0.0000000 -1.0000000  0.0000000 )
                  ( -1.0000000  0.0000000  0.0000000 )
                  (  0.0000000  0.0000000 -1.0000000 )


      isym =  7      90 deg rotation - cart. axis [0,0,-1]       

 cryst.   s( 7) = (     0         -1          0      )
                  (     1          0          0      )
                  (     0          0          1      )

 cart.    s( 7) = (  0.0000000  1.0000000  0.0000000 )
                  ( -1.0000000  0.0000000  0.0000000 )
                  (  0.0000000  0.0000000  1.0000000 )


      isym =  8      90 deg rotation - cart. axis [0,0,1]        

 cryst.   s( 8) = (     0          1          0      )
                  (    -1          0          0      )
                  (     0          0          1      )

 cart.    s( 8) = (  0.0000000 -1.0000000  0.0000000 )
                  (  1.0000000  0.0000000  0.0000000 )
                  (  0.0000000  0.0000000  1.0000000 )


      isym =  9     180 deg rotation - cart. axis [1,0,1]        

 cryst.   s( 9) = (     0          0          1      )
                  (     0         -1          0      )
                  (     1          0          0      )

 cart.    s( 9) = (  0.0000000  0.0000000  1.0000000 )
                  (  0.0000000 -1.0000000  0.0000000 )
                  (  1.0000000  0.0000000  0.0000000 )


      isym = 10     180 deg rotation - cart. axis [-1,0,1]       

 cryst.   s(10) = (     0          0         -1      )
                  (     0         -1          0      )
                  (    -1          0          0      )

 cart.    s(10) = (  0.0000000  0.0000000 -1.0000000 )
                  (  0.0000000 -1.0000000  0.0000000 )
                  ( -1.0000000  0.0000000  0.0000000 )


      isym = 11      90 deg rotation - cart. axis [0,1,0]        

 cryst.   s(11) = (     0          0         -1      )
                  (     0          1          0      )
                  (     1          0          0      )

 cart.    s(11) = (  0.0000000  0.0000000  1.0000000 )
                  (  0.0000000  1.0000000  0.0000000 )
                  ( -1.0000000  0.0000000  0.0000000 )


      isym = 12      90 deg rotation - cart. axis [0,-1,0]       

 cryst.   s(12) = (     0          0          1      )
                  (     0          1          0      )
                  (    -1          0          0      )

 cart.    s(12) = (  0.0000000  0.0000000 -1.0000000 )
                  (  0.0000000  1.0000000  0.0000000 )
                  (  1.0000000  0.0000000  0.0000000 )


      isym = 13     180 deg rotation - cart. axis [0,1,1]        

 cryst.   s(13) = (    -1          0          0      )
                  (     0          0          1      )
                  (     0          1          0      )

 cart.    s(13) = ( -1.0000000  0.0000000  0.0000000 )
                  (  0.0000000  0.0000000  1.0000000 )
                  (  0.0000000  1.0000000  0.0000000 )


      isym = 14     180 deg rotation - cart. axis [0,1,-1]       

 cryst.   s(14) = (    -1          0          0      )
                  (     0          0         -1      )
                  (     0         -1          0      )

 cart.    s(14) = ( -1.0000000  0.0000000  0.0000000 )
                  (  0.0000000  0.0000000 -1.0000000 )
                  (  0.0000000 -1.0000000  0.0000000 )


      isym = 15      90 deg rotation - cart. axis [-1,0,0]       

 cryst.   s(15) = (     1          0          0      )
                  (     0          0         -1      )
                  (     0          1          0      )

 cart.    s(15) = (  1.0000000  0.0000000  0.0000000 )
                  (  0.0000000  0.0000000  1.0000000 )
                  (  0.0000000 -1.0000000  0.0000000 )


      isym = 16      90 deg rotation - cart. axis [1,0,0]        

 cryst.   s(16) = (     1          0          0      )
                  (     0          0          1      )
                  (     0         -1          0      )

 cart.    s(16) = (  1.0000000  0.0000000  0.0000000 )
                  (  0.0000000  0.0000000 -1.0000000 )
                  (  0.0000000  1.0000000  0.0000000 )


      isym = 17     120 deg rotation - cart. axis [-1,-1,-1]     

 cryst.   s(17) = (     0          0          1      )
                  (     1          0          0      )
                  (     0          1          0      )

 cart.    s(17) = (  0.0000000  1.0000000  0.0000000 )
                  (  0.0000000  0.0000000  1.0000000 )
                  (  1.0000000  0.0000000  0.0000000 )


      isym = 18     120 deg rotation - cart. axis [-1,1,1]       

 cryst.   s(18) = (     0          0         -1      )
                  (    -1          0          0      )
                  (     0          1          0      )

 cart.    s(18) = (  0.0000000 -1.0000000  0.0000000 )
                  (  0.0000000  0.0000000  1.0000000 )
                  ( -1.0000000  0.0000000  0.0000000 )


      isym = 19     120 deg rotation - cart. axis [1,1,-1]       

 cryst.   s(19) = (     0          0         -1      )
                  (     1          0          0      )
                  (     0         -1          0      )

 cart.    s(19) = (  0.0000000  1.0000000  0.0000000 )
                  (  0.0000000  0.0000000 -1.0000000 )
                  ( -1.0000000  0.0000000  0.0000000 )


      isym = 20     120 deg rotation - cart. axis [1,-1,1]       

 cryst.   s(20) = (     0          0          1      )
                  (    -1          0          0      )
                  (     0         -1          0      )

 cart.    s(20) = (  0.0000000 -1.0000000  0.0000000 )
                  (  0.0000000  0.0000000 -1.0000000 )
                  (  1.0000000  0.0000000  0.0000000 )


      isym = 21     120 deg rotation - cart. axis [1,1,1]        

 cryst.   s(21) = (     0          1          0      )
                  (     0          0          1      )
                  (     1          0          0      )

 cart.    s(21) = (  0.0000000  0.0000000  1.0000000 )
                  (  1.0000000  0.0000000  0.0000000 )
                  (  0.0000000  1.0000000  0.0000000 )


      isym = 22     120 deg rotation - cart. axis [-1,1,-1]      

 cryst.   s(22) = (     0         -1          0      )
                  (     0          0         -1      )
                  (     1          0          0      )

 cart.    s(22) = (  0.0000000  0.0000000  1.0000000 )
                  ( -1.0000000  0.0000000  0.0000000 )
                  (  0.0000000 -1.0000000  0.0000000 )


      isym = 23     120 deg rotation - cart. axis [1,-1,-1]      

 cryst.   s(23) = (     0         -1          0      )
                  (     0          0          1      )
                  (    -1          0          0      )

 cart.    s(23) = (  0.0000000  0.0000000 -1.0000000 )
                  ( -1.0000000  0.0000000  0.0000000 )
                  (  0.0000000  1.0000000  0.0000000 )


      isym = 24     120 deg rotation - cart. axis [-1,-1,1]      

 cryst.   s(24) = (     0          1          0      )
                  (     0          0         -1      )
                  (    -1          0          0      )

 cart.    s(24) = (  0.0000000  0.0000000 -1.0000000 )
                  (  1.0000000  0.0000000  0.0000000 )
                  (  0.0000000 -1.0000000  0.0000000 )


      isym = 25     inversion                                    

 cryst.   s(25) = (    -1          0          0      )
                  (     0         -1          0      )
                  (     0          0         -1      )

 cart.    s(25) = ( -1.0000000  0.0000000  0.0000000 )
                  (  0.0000000 -1.0000000  0.0000000 )
                  (  0.0000000  0.0000000 -1.0000000 )


      isym = 26     inv. 180 deg rotation - cart. axis [0,0,1]   

 cryst.   s(26) = (     1          0          0      )
                  (     0          1          0      )
                  (     0          0         -1      )

 cart.    s(26) = (  1.0000000  0.0000000  0.0000000 )
                  (  0.0000000  1.0000000  0.0000000 )
                  (  0.0000000  0.0000000 -1.0000000 )


      isym = 27     inv. 180 deg rotation - cart. axis [0,1,0]   

 cryst.   s(27) = (     1          0          0      )
                  (     0         -1          0      )
                  (     0          0          1      )

 cart.    s(27) = (  1.0000000  0.0000000  0.0000000 )
                  (  0.0000000 -1.0000000  0.0000000 )
                  (  0.0000000  0.0000000  1.0000000 )


      isym = 28     inv. 180 deg rotation - cart. axis [1,0,0]   

 cryst.   s(28) = (    -1          0          0      )
                  (     0          1          0      )
                  (     0          0          1      )

 cart.    s(28) = ( -1.0000000  0.0000000  0.0000000 )
                  (  0.0000000  1.0000000  0.0000000 )
                  (  0.0000000  0.0000000  1.0000000 )


      isym = 29     inv. 180 deg rotation - cart. axis [1,1,0]   

 cryst.   s(29) = (     0         -1          0      )
                  (    -1          0          0      )
                  (     0          0          1      )

 cart.    s(29) = (  0.0000000 -1.0000000  0.0000000 )
                  ( -1.0000000  0.0000000  0.0000000 )
                  (  0.0000000  0.0000000  1.0000000 )


      isym = 30     inv. 180 deg rotation - cart. axis [1,-1,0]  

 cryst.   s(30) = (     0          1          0      )
                  (     1          0          0      )
                  (     0          0          1      )

 cart.    s(30) = (  0.0000000  1.0000000  0.0000000 )
                  (  1.0000000  0.0000000  0.0000000 )
                  (  0.0000000  0.0000000  1.0000000 )


      isym = 31     inv.  90 deg rotation - cart. axis [0,0,-1]  

 cryst.   s(31) = (     0          1          0      )
                  (    -1          0          0      )
                  (     0          0         -1      )

 cart.    s(31) = (  0.0000000 -1.0000000  0.0000000 )
                  (  1.0000000  0.0000000  0.0000000 )
                  (  0.0000000  0.0000000 -1.0000000 )


      isym = 32     inv.  90 deg rotation - cart. axis [0,0,1]   

 cryst.   s(32) = (     0         -1          0      )
                  (     1          0          0      )
                  (     0          0         -1      )

 cart.    s(32) = (  0.0000000  1.0000000  0.0000000 )
                  ( -1.0000000  0.0000000  0.0000000 )
                  (  0.0000000  0.0000000 -1.0000000 )


      isym = 33     inv. 180 deg rotation - cart. axis [1,0,1]   

 cryst.   s(33) = (     0          0         -1      )
                  (     0          1          0      )
                  (    -1          0          0      )

 cart.    s(33) = (  0.0000000  0.0000000 -1.0000000 )
                  (  0.0000000  1.0000000  0.0000000 )
                  ( -1.0000000  0.0000000  0.0000000 )


      isym = 34     inv. 180 deg rotation - cart. axis [-1,0,1]  

 cryst.   s(34) = (     0          0          1      )
                  (     0          1          0      )
                  (     1          0          0      )

 cart.    s(34) = (  0.0000000  0.0000000  1.0000000 )
                  (  0.0000000  1.0000000  0.0000000 )
                  (  1.0000000  0.0000000  0.0000000 )


      isym = 35     inv.  90 deg rotation - cart. axis [0,1,0]   

 cryst.   s(35) = (     0          0          1      )
                  (     0         -1          0      )
                  (    -1          0          0      )

 cart.    s(35) = (  0.0000000  0.0000000 -1.0000000 )
                  (  0.0000000 -1.0000000  0.0000000 )
                  (  1.0000000  0.0000000  0.0000000 )


      isym = 36     inv.  90 deg rotation - cart. axis [0,-1,0]  

 cryst.   s(36) = (     0          0         -1      )
                  (     0         -1          0      )
                  (     1          0          0      )

 cart.    s(36) = (  0.0000000  0.0000000  1.0000000 )
                  (  0.0000000 -1.0000000  0.0000000 )
                  ( -1.0000000  0.0000000  0.0000000 )


      isym = 37     inv. 180 deg rotation - cart. axis [0,1,1]   

 cryst.   s(37) = (     1          0          0      )
                  (     0          0         -1      )
                  (     0         -1          0      )

 cart.    s(37) = (  1.0000000  0.0000000  0.0000000 )
                  (  0.0000000  0.0000000 -1.0000000 )
                  (  0.0000000 -1.0000000  0.0000000 )


      isym = 38     inv. 180 deg rotation - cart. axis [0,1,-1]  

 cryst.   s(38) = (     1          0          0      )
                  (     0          0          1      )
                  (     0          1          0      )

 cart.    s(38) = (  1.0000000  0.0000000  0.0000000 )
                  (  0.0000000  0.0000000  1.0000000 )
                  (  0.0000000  1.0000000  0.0000000 )


      isym = 39     inv.  90 deg rotation - cart. axis [-1,0,0]  

 cryst.   s(39) = (    -1          0          0      )
                  (     0          0          1      )
                  (     0         -1          0      )

 cart.    s(39) = ( -1.0000000  0.0000000  0.0000000 )
                  (  0.0000000  0.0000000 -1.0000000 )
                  (  0.0000000  1.0000000  0.0000000 )


      isym = 40     inv.  90 deg rotation - cart. axis [1,0,0]   

 cryst.   s(40) = (    -1          0          0      )
                  (     0          0         -1      )
                  (     0          1          0      )

 cart.    s(40) = ( -1.0000000  0.0000000  0.0000000 )
                  (  0.0000000  0.0000000  1.0000000 )
                  (  0.0000000 -1.0000000  0.0000000 )


      isym = 41     inv. 120 deg rotation - cart. axis [-1,-1,-1]

 cryst.   s(41) = (     0          0         -1      )
                  (    -1          0          0      )
                  (     0         -1          0      )

 cart.    s(41) = (  0.0000000 -1.0000000  0.0000000 )
                  (  0.0000000  0.0000000 -1.0000000 )
                  ( -1.0000000  0.0000000  0.0000000 )


      isym = 42     inv. 120 deg rotation - cart. axis [-1,1,1]  

 cryst.   s(42) = (     0          0          1      )
                  (     1          0          0      )
                  (     0         -1          0      )

 cart.    s(42) = (  0.0000000  1.0000000  0.0000000 )
                  (  0.0000000  0.0000000 -1.0000000 )
                  (  1.0000000  0.0000000  0.0000000 )


      isym = 43     inv. 120 deg rotation - cart. axis [1,1,-1]  

 cryst.   s(43) = (     0          0          1      )
                  (    -1          0          0      )
                  (     0          1          0      )

 cart.    s(43) = (  0.0000000 -1.0000000  0.0000000 )
                  (  0.0000000  0.0000000  1.0000000 )
                  (  1.0000000  0.0000000  0.0000000 )


      isym = 44     inv. 120 deg rotation - cart. axis [1,-1,1]  

 cryst.   s(44) = (     0          0         -1      )
                  (     1          0          0      )
                  (     0          1          0      )

 cart.    s(44) = (  0.0000000  1.0000000  0.0000000 )
                  (  0.0000000  0.0000000  1.0000000 )
                  ( -1.0000000  0.0000000  0.0000000 )


      isym = 45     inv. 120 deg rotation - cart. axis [1,1,1]   

 cryst.   s(45) = (     0         -1          0      )
                  (     0          0         -1      )
                  (    -1          0          0      )

 cart.    s(45) = (  0.0000000  0.0000000 -1.0000000 )
                  ( -1.0000000  0.0000000  0.0000000 )
                  (  0.0000000 -1.0000000  0.0000000 )


      isym = 46     inv. 120 deg rotation - cart. axis [-1,1,-1] 

 cryst.   s(46) = (     0          1          0      )
                  (     0          0          1      )
                  (    -1          0          0      )

 cart.    s(46) = (  0.0000000  0.0000000 -1.0000000 )
                  (  1.0000000  0.0000000  0.0000000 )
                  (  0.0000000  1.0000000  0.0000000 )


      isym = 47     inv. 120 deg rotation - cart. axis [1,-1,-1] 

 cryst.   s(47) = (     0          1          0      )
                  (     0          0         -1      )
                  (     1          0          0      )

 cart.    s(47) = (  0.0000000  0.0000000  1.0000000 )
                  (  1.0000000  0.0000000  0.0000000 )
                  (  0.0000000 -1.0000000  0.0000000 )


      isym = 48     inv. 120 deg rotation - cart. axis [-1,-1,1] 

 cryst.   s(48) = (     0         -1          0      )
                  (     0          0          1      )
                  (     1          0          0      )

 cart.    s(48) = (  0.0000000  0.0000000  1.0000000 )
                  ( -1.0000000  0.0000000  0.0000000 )
                  (  0.0000000  1.0000000  0.0000000 )


     point group O_h (m-3m) 
     there are 10 classes
     the character table:

       E     8C3   6C2'  6C4   3C2   i     6S4   8S6   3s_h  6s_d 
A_1g   1.00  1.00  1.00  1.00  1.00  1.00  1.00  1.00  1.00  1.00
A_2g   1.00  1.00 -1.00 -1.00  1.00  1.00 -1.00  1.00  1.00 -1.00
E_g    2.00 -1.00  0.00  0.00  2.00  2.00  0.00 -1.00  2.00  0.00
T_1g   3.00  0.00 -1.00  1.00 -1.00  3.00  1.00  0.00 -1.00 -1.00
T_2g   3.00  0.00  1.00 -1.00 -1.00  3.00 -1.00  0.00 -1.00  1.00
A_1u   1.00  1.00  1.00  1.00  1.00 -1.00 -1.00 -1.00 -1.00 -1.00
A_2u   1.00  1.00 -1.00 -1.00  1.00 -1.00  1.00 -1.00 -1.00  1.00
E_u    2.00 -1.00  0.00  0.00  2.00 -2.00  0.00  1.00 -2.00  0.00
T_1u   3.00  0.00 -1.00  1.00 -1.00 -3.00 -1.00  0.00  1.00  1.00
T_2u   3.00  0.00  1.00 -1.00 -1.00 -3.00  1.00  0.00  1.00 -1.00

     the symmetry operations in each class:
     E        1
     3C2      2    4    3
     6C2'     5    6   14   13   10    9
     6C4      7    8   15   16   12   11
     8C3     17   19   20   18   24   21   22   23
     i       25
     3s_h    26   28   27
     6s_d    29   30   38   37   34   33
     6S4     31   32   39   40   36   35
     8S6     41   43   44   42   48   45   46   47

   Cartesian axes

     site n.     atom                  positions (alat units)
         1           Ba  tau(   1) = (   0.0000000   0.0000000   0.0000000  )
         2           Ti  tau(   2) = (   0.5000000   0.5000000   0.5000000  )
         3           O   tau(   3) = (   0.0000000   0.5000000   0.5000000  )
         4           O   tau(   4) = (   0.5000000   0.5000000   0.0000000  )
         5           O   tau(   5) = (   0.5000000   0.0000000   0.5000000  )

   Crystallographic axes

     site n.     atom                  positions (cryst. coord.)
         1           Ba  tau(   1) = (  0.0000000  0.0000000  0.0000000  )
         2           Ti  tau(   2) = (  0.5000000  0.5000000  0.5000000  )
         3           O   tau(   3) = (  0.0000000  0.5000000  0.5000000  )
         4           O   tau(   4) = (  0.5000000  0.5000000  0.0000000  )
         5           O   tau(   5) = (  0.5000000  0.0000000  0.5000000  )

     number of k points=   211
                       cart. coord. in units 2pi/alat
        k(    1) = (   0.0000000   0.0000000   0.0000000), wk =   0.0094787
        k(    2) = (   0.0166667   0.0000000   0.0000000), wk =   0.0094787
        k(    3) = (   0.0333333   0.0000000   0.0000000), wk =   0.0094787
        k(    4) = (   0.0500000   0.0000000   0.0000000), wk =   0.0094787
        k(    5) = (   0.0666667   0.0000000   0.0000000), wk =   0.0094787
        k(    6) = (   0.0833333   0.0000000   0.0000000), wk =   0.0094787
        k(    7) = (   0.1000000   0.0000000   0.0000000), wk =   0.0094787
        k(    8) = (   0.1166667   0.0000000   0.0000000), wk =   0.0094787
        k(    9) = (   0.1333333   0.0000000   0.0000000), wk =   0.0094787
        k(   10) = (   0.1500000   0.0000000   0.0000000), wk =   0.0094787
        k(   11) = (   0.1666667   0.0000000   0.0000000), wk =   0.0094787
        k(   12) = (   0.1833333   0.0000000   0.0000000), wk =   0.0094787
        k(   13) = (   0.2000000   0.0000000   0.0000000), wk =   0.0094787
        k(   14) = (   0.2166667   0.0000000   0.0000000), wk =   0.0094787
        k(   15) = (   0.2333333   0.0000000   0.0000000), wk =   0.0094787
        k(   16) = (   0.2500000   0.0000000   0.0000000), wk =   0.0094787
        k(   17) = (   0.2666667   0.0000000   0.0000000), wk =   0.0094787
        k(   18) = (   0.2833333   0.0000000   0.0000000), wk =   0.0094787
        k(   19) = (   0.3000000   0.0000000   0.0000000), wk =   0.0094787
        k(   20) = (   0.3166667   0.0000000   0.0000000), wk =   0.0094787
        k(   21) = (   0.3333333   0.0000000   0.0000000), wk =   0.0094787
        k(   22) = (   0.3500000   0.0000000   0.0000000), wk =   0.0094787
        k(   23) = (   0.3666667   0.0000000   0.0000000), wk =   0.0094787
        k(   24) = (   0.3833333   0.0000000   0.0000000), wk =   0.0094787
        k(   25) = (   0.4000000   0.0000000   0.0000000), wk =   0.0094787
        k(   26) = (   0.4166667   0.0000000   0.0000000), wk =   0.0094787
        k(   27) = (   0.4333333   0.0000000   0.0000000), wk =   0.0094787
        k(   28) = (   0.4500000   0.0000000   0.0000000), wk =   0.0094787
        k(   29) = (   0.4666667   0.0000000   0.0000000), wk =   0.0094787
        k(   30) = (   0.4833333   0.0000000   0.0000000), wk =   0.0094787
        k(   31) = (   0.5000000   0.0000000   0.0000000), wk =   0.0094787
        k(   32) = (   0.5000000   0.0000000   0.0166667), wk =   0.0094787
        k(   33) = (   0.5000000   0.0000000   0.0333333), wk =   0.0094787
        k(   34) = (   0.5000000   0.0000000   0.0500000), wk =   0.0094787
        k(   35) = (   0.5000000   0.0000000   0.0666667), wk =   0.0094787
        k(   36) = (   0.5000000   0.0000000   0.0833333), wk =   0.0094787
        k(   37) = (   0.5000000   0.0000000   0.1000000), wk =   0.0094787
        k(   38) = (   0.5000000   0.0000000   0.1166667), wk =   0.0094787
        k(   39) = (   0.5000000   0.0000000   0.1333333), wk =   0.0094787
        k(   40) = (   0.5000000   0.0000000   0.1500000), wk =   0.0094787
        k(   41) = (   0.5000000   0.0000000   0.1666667), wk =   0.0094787
        k(   42) = (   0.5000000   0.0000000   0.1833333), wk =   0.0094787
        k(   43) = (   0.5000000   0.0000000   0.2000000), wk =   0.0094787
        k(   44) = (   0.5000000   0.0000000   0.2166667), wk =   0.0094787
        k(   45) = (   0.5000000   0.0000000   0.2333333), wk =   0.0094787
        k(   46) = (   0.5000000   0.0000000   0.2500000), wk =   0.0094787
        k(   47) = (   0.5000000   0.0000000   0.2666667), wk =   0.0094787
        k(   48) = (   0.5000000   0.0000000   0.2833333), wk =   0.0094787
        k(   49) = (   0.5000000   0.0000000   0.3000000), wk =   0.0094787
        k(   50) = (   0.5000000   0.0000000   0.3166667), wk =   0.0094787
        k(   51) = (   0.5000000   0.0000000   0.3333333), wk =   0.0094787
        k(   52) = (   0.5000000   0.0000000   0.3500000), wk =   0.0094787
        k(   53) = (   0.5000000   0.0000000   0.3666667), wk =   0.0094787
        k(   54) = (   0.5000000   0.0000000   0.3833333), wk =   0.0094787
        k(   55) = (   0.5000000   0.0000000   0.4000000), wk =   0.0094787
        k(   56) = (   0.5000000   0.0000000   0.4166667), wk =   0.0094787
        k(   57) = (   0.5000000   0.0000000   0.4333333), wk =   0.0094787
        k(   58) = (   0.5000000   0.0000000   0.4500000), wk =   0.0094787
        k(   59) = (   0.5000000   0.0000000   0.4666667), wk =   0.0094787
        k(   60) = (   0.5000000   0.0000000   0.4833333), wk =   0.0094787
        k(   61) = (   0.5000000   0.0000000   0.5000000), wk =   0.0094787
        k(   62) = (   0.4833333   0.0000000   0.4833333), wk =   0.0094787
        k(   63) = (   0.4666667   0.0000000   0.4666667), wk =   0.0094787
        k(   64) = (   0.4500000   0.0000000   0.4500000), wk =   0.0094787
        k(   65) = (   0.4333333   0.0000000   0.4333333), wk =   0.0094787
        k(   66) = (   0.4166667   0.0000000   0.4166667), wk =   0.0094787
        k(   67) = (   0.4000000   0.0000000   0.4000000), wk =   0.0094787
        k(   68) = (   0.3833333   0.0000000   0.3833333), wk =   0.0094787
        k(   69) = (   0.3666667   0.0000000   0.3666667), wk =   0.0094787
        k(   70) = (   0.3500000   0.0000000   0.3500000), wk =   0.0094787
        k(   71) = (   0.3333333   0.0000000   0.3333333), wk =   0.0094787
        k(   72) = (   0.3166667   0.0000000   0.3166667), wk =   0.0094787
        k(   73) = (   0.3000000   0.0000000   0.3000000), wk =   0.0094787
        k(   74) = (   0.2833333   0.0000000   0.2833333), wk =   0.0094787
        k(   75) = (   0.2666667   0.0000000   0.2666667), wk =   0.0094787
        k(   76) = (   0.2500000   0.0000000   0.2500000), wk =   0.0094787
        k(   77) = (   0.2333333   0.0000000   0.2333333), wk =   0.0094787
        k(   78) = (   0.2166667   0.0000000   0.2166667), wk =   0.0094787
        k(   79) = (   0.2000000   0.0000000   0.2000000), wk =   0.0094787
        k(   80) = (   0.1833333   0.0000000   0.1833333), wk =   0.0094787
        k(   81) = (   0.1666667   0.0000000   0.1666667), wk =   0.0094787
        k(   82) = (   0.1500000   0.0000000   0.1500000), wk =   0.0094787
        k(   83) = (   0.1333333   0.0000000   0.1333333), wk =   0.0094787
        k(   84) = (   0.1166667   0.0000000   0.1166667), wk =   0.0094787
        k(   85) = (   0.1000000   0.0000000   0.1000000), wk =   0.0094787
        k(   86) = (   0.0833333   0.0000000   0.0833333), wk =   0.0094787
        k(   87) = (   0.0666667   0.0000000   0.0666667), wk =   0.0094787
        k(   88) = (   0.0500000   0.0000000   0.0500000), wk =   0.0094787
        k(   89) = (   0.0333333   0.0000000   0.0333333), wk =   0.0094787
        k(   90) = (   0.0166667   0.0000000   0.0166667), wk =   0.0094787
        k(   91) = (   0.0000000   0.0000000   0.0000000), wk =   0.0094787
        k(   92) = (   0.0166667   0.0166667   0.0000000), wk =   0.0094787
        k(   93) = (   0.0333333   0.0333333   0.0000000), wk =   0.0094787
        k(   94) = (   0.0500000   0.0500000   0.0000000), wk =   0.0094787
        k(   95) = (   0.0666667   0.0666667   0.0000000), wk =   0.0094787
        k(   96) = (   0.0833333   0.0833333   0.0000000), wk =   0.0094787
        k(   97) = (   0.1000000   0.1000000   0.0000000), wk =   0.0094787
        k(   98) = (   0.1166667   0.1166667   0.0000000), wk =   0.0094787
        k(   99) = (   0.1333333   0.1333333   0.0000000), wk =   0.0094787
        k(  100) = (   0.1500000   0.1500000   0.0000000), wk =   0.0094787
        k(  101) = (   0.1666667   0.1666667   0.0000000), wk =   0.0094787
        k(  102) = (   0.1833333   0.1833333   0.0000000), wk =   0.0094787
        k(  103) = (   0.2000000   0.2000000   0.0000000), wk =   0.0094787
        k(  104) = (   0.2166667   0.2166667   0.0000000), wk =   0.0094787
        k(  105) = (   0.2333333   0.2333333   0.0000000), wk =   0.0094787
        k(  106) = (   0.2500000   0.2500000   0.0000000), wk =   0.0094787
        k(  107) = (   0.2666667   0.2666667   0.0000000), wk =   0.0094787
        k(  108) = (   0.2833333   0.2833333   0.0000000), wk =   0.0094787
        k(  109) = (   0.3000000   0.3000000   0.0000000), wk =   0.0094787
        k(  110) = (   0.3166667   0.3166667   0.0000000), wk =   0.0094787
        k(  111) = (   0.3333333   0.3333333   0.0000000), wk =   0.0094787
        k(  112) = (   0.3500000   0.3500000   0.0000000), wk =   0.0094787
        k(  113) = (   0.3666667   0.3666667   0.0000000), wk =   0.0094787
        k(  114) = (   0.3833333   0.3833333   0.0000000), wk =   0.0094787
        k(  115) = (   0.4000000   0.4000000   0.0000000), wk =   0.0094787
        k(  116) = (   0.4166667   0.4166667   0.0000000), wk =   0.0094787
        k(  117) = (   0.4333333   0.4333333   0.0000000), wk =   0.0094787
        k(  118) = (   0.4500000   0.4500000   0.0000000), wk =   0.0094787
        k(  119) = (   0.4666667   0.4666667   0.0000000), wk =   0.0094787
        k(  120) = (   0.4833333   0.4833333   0.0000000), wk =   0.0094787
        k(  121) = (   0.5000000   0.5000000   0.0000000), wk =   0.0094787
        k(  122) = (   0.5000000   0.5000000   0.0166667), wk =   0.0094787
        k(  123) = (   0.5000000   0.5000000   0.0333333), wk =   0.0094787
        k(  124) = (   0.5000000   0.5000000   0.0500000), wk =   0.0094787
        k(  125) = (   0.5000000   0.5000000   0.0666667), wk =   0.0094787
        k(  126) = (   0.5000000   0.5000000   0.0833333), wk =   0.0094787
        k(  127) = (   0.5000000   0.5000000   0.1000000), wk =   0.0094787
        k(  128) = (   0.5000000   0.5000000   0.1166667), wk =   0.0094787
        k(  129) = (   0.5000000   0.5000000   0.1333333), wk =   0.0094787
        k(  130) = (   0.5000000   0.5000000   0.1500000), wk =   0.0094787
        k(  131) = (   0.5000000   0.5000000   0.1666667), wk =   0.0094787
        k(  132) = (   0.5000000   0.5000000   0.1833333), wk =   0.0094787
        k(  133) = (   0.5000000   0.5000000   0.2000000), wk =   0.0094787
        k(  134) = (   0.5000000   0.5000000   0.2166667), wk =   0.0094787
        k(  135) = (   0.5000000   0.5000000   0.2333333), wk =   0.0094787
        k(  136) = (   0.5000000   0.5000000   0.2500000), wk =   0.0094787
        k(  137) = (   0.5000000   0.5000000   0.2666667), wk =   0.0094787
        k(  138) = (   0.5000000   0.5000000   0.2833333), wk =   0.0094787
        k(  139) = (   0.5000000   0.5000000   0.3000000), wk =   0.0094787
        k(  140) = (   0.5000000   0.5000000   0.3166667), wk =   0.0094787
        k(  141) = (   0.5000000   0.5000000   0.3333333), wk =   0.0094787
        k(  142) = (   0.5000000   0.5000000   0.3500000), wk =   0.0094787
        k(  143) = (   0.5000000   0.5000000   0.3666667), wk =   0.0094787
        k(  144) = (   0.5000000   0.5000000   0.3833333), wk =   0.0094787
        k(  145) = (   0.5000000   0.5000000   0.4000000), wk =   0.0094787
        k(  146) = (   0.5000000   0.5000000   0.4166667), wk =   0.0094787
        k(  147) = (   0.5000000   0.5000000   0.4333333), wk =   0.0094787
        k(  148) = (   0.5000000   0.5000000   0.4500000), wk =   0.0094787
        k(  149) = (   0.5000000   0.5000000   0.4666667), wk =   0.0094787
        k(  150) = (   0.5000000   0.5000000   0.4833333), wk =   0.0094787
        k(  151) = (   0.5000000   0.5000000   0.5000000), wk =   0.0094787
        k(  152) = (   0.4833333   0.4833333   0.5000000), wk =   0.0094787
        k(  153) = (   0.4666667   0.4666667   0.5000000), wk =   0.0094787
        k(  154) = (   0.4500000   0.4500000   0.5000000), wk =   0.0094787
        k(  155) = (   0.4333333   0.4333333   0.5000000), wk =   0.0094787
        k(  156) = (   0.4166667   0.4166667   0.5000000), wk =   0.0094787
        k(  157) = (   0.4000000   0.4000000   0.5000000), wk =   0.0094787
        k(  158) = (   0.3833333   0.3833333   0.5000000), wk =   0.0094787
        k(  159) = (   0.3666667   0.3666667   0.5000000), wk =   0.0094787
        k(  160) = (   0.3500000   0.3500000   0.5000000), wk =   0.0094787
        k(  161) = (   0.3333333   0.3333333   0.5000000), wk =   0.0094787
        k(  162) = (   0.3166667   0.3166667   0.5000000), wk =   0.0094787
        k(  163) = (   0.3000000   0.3000000   0.5000000), wk =   0.0094787
        k(  164) = (   0.2833333   0.2833333   0.5000000), wk =   0.0094787
        k(  165) = (   0.2666667   0.2666667   0.5000000), wk =   0.0094787
        k(  166) = (   0.2500000   0.2500000   0.5000000), wk =   0.0094787
        k(  167) = (   0.2333333   0.2333333   0.5000000), wk =   0.0094787
        k(  168) = (   0.2166667   0.2166667   0.5000000), wk =   0.0094787
        k(  169) = (   0.2000000   0.2000000   0.5000000), wk =   0.0094787
        k(  170) = (   0.1833333   0.1833333   0.5000000), wk =   0.0094787
        k(  171) = (   0.1666667   0.1666667   0.5000000), wk =   0.0094787
        k(  172) = (   0.1500000   0.1500000   0.5000000), wk =   0.0094787
        k(  173) = (   0.1333333   0.1333333   0.5000000), wk =   0.0094787
        k(  174) = (   0.1166667   0.1166667   0.5000000), wk =   0.0094787
        k(  175) = (   0.1000000   0.1000000   0.5000000), wk =   0.0094787
        k(  176) = (   0.0833333   0.0833333   0.5000000), wk =   0.0094787
        k(  177) = (   0.0666667   0.0666667   0.5000000), wk =   0.0094787
        k(  178) = (   0.0500000   0.0500000   0.5000000), wk =   0.0094787
        k(  179) = (   0.0333333   0.0333333   0.5000000), wk =   0.0094787
        k(  180) = (   0.0166667   0.0166667   0.5000000), wk =   0.0094787
        k(  181) = (   0.0000000   0.0000000   0.5000000), wk =   0.0094787
        k(  182) = (   0.0000000   0.0000000   0.4833333), wk =   0.0094787
        k(  183) = (   0.0000000   0.0000000   0.4666667), wk =   0.0094787
        k(  184) = (   0.0000000   0.0000000   0.4500000), wk =   0.0094787
        k(  185) = (   0.0000000   0.0000000   0.4333333), wk =   0.0094787
        k(  186) = (   0.0000000   0.0000000   0.4166667), wk =   0.0094787
        k(  187) = (   0.0000000   0.0000000   0.4000000), wk =   0.0094787
        k(  188) = (   0.0000000   0.0000000   0.3833333), wk =   0.0094787
        k(  189) = (   0.0000000   0.0000000   0.3666667), wk =   0.0094787
        k(  190) = (   0.0000000   0.0000000   0.3500000), wk =   0.0094787
        k(  191) = (   0.0000000   0.0000000   0.3333333), wk =   0.0094787
        k(  192) = (   0.0000000   0.0000000   0.3166667), wk =   0.0094787
        k(  193) = (   0.0000000   0.0000000   0.3000000), wk =   0.0094787
        k(  194) = (   0.0000000   0.0000000   0.2833333), wk =   0.0094787
        k(  195) = (   0.0000000   0.0000000   0.2666667), wk =   0.0094787
        k(  196) = (   0.0000000   0.0000000   0.2500000), wk =   0.0094787
        k(  197) = (   0.0000000   0.0000000   0.2333333), wk =   0.0094787
        k(  198) = (   0.0000000   0.0000000   0.2166667), wk =   0.0094787
        k(  199) = (   0.0000000   0.0000000   0.2000000), wk =   0.0094787
        k(  200) = (   0.0000000   0.0000000   0.1833333), wk =   0.0094787
        k(  201) = (   0.0000000   0.0000000   0.1666667), wk =   0.0094787
        k(  202) = (   0.0000000   0.0000000   0.1500000), wk =   0.0094787
        k(  203) = (   0.0000000   0.0000000   0.1333333), wk =   0.0094787
        k(  204) = (   0.0000000   0.0000000   0.1166667), wk =   0.0094787
        k(  205) = (   0.0000000   0.0000000   0.1000000), wk =   0.0094787
        k(  206) = (   0.0000000   0.0000000   0.0833333), wk =   0.0094787
        k(  207) = (   0.0000000   0.0000000   0.0666667), wk =   0.0094787
        k(  208) = (   0.0000000   0.0000000   0.0500000), wk =   0.0094787
        k(  209) = (   0.0000000   0.0000000   0.0333333), wk =   0.0094787
        k(  210) = (   0.0000000   0.0000000   0.0166667), wk =   0.0094787
        k(  211) = (   0.0000000   0.0000000   0.0000000), wk =   0.0094787

                       cryst. coord.
        k(    1) = (   0.0000000   0.0000000   0.0000000), wk =   0.0094787
        k(    2) = (   0.0166667   0.0000000   0.0000000), wk =   0.0094787
        k(    3) = (   0.0333333   0.0000000   0.0000000), wk =   0.0094787
        k(    4) = (   0.0500000   0.0000000   0.0000000), wk =   0.0094787
        k(    5) = (   0.0666667   0.0000000   0.0000000), wk =   0.0094787
        k(    6) = (   0.0833333   0.0000000   0.0000000), wk =   0.0094787
        k(    7) = (   0.1000000   0.0000000   0.0000000), wk =   0.0094787
        k(    8) = (   0.1166667   0.0000000   0.0000000), wk =   0.0094787
        k(    9) = (   0.1333333   0.0000000   0.0000000), wk =   0.0094787
        k(   10) = (   0.1500000   0.0000000   0.0000000), wk =   0.0094787
        k(   11) = (   0.1666667   0.0000000   0.0000000), wk =   0.0094787
        k(   12) = (   0.1833333   0.0000000   0.0000000), wk =   0.0094787
        k(   13) = (   0.2000000   0.0000000   0.0000000), wk =   0.0094787
        k(   14) = (   0.2166667   0.0000000   0.0000000), wk =   0.0094787
        k(   15) = (   0.2333333   0.0000000   0.0000000), wk =   0.0094787
        k(   16) = (   0.2500000   0.0000000   0.0000000), wk =   0.0094787
        k(   17) = (   0.2666667   0.0000000   0.0000000), wk =   0.0094787
        k(   18) = (   0.2833333   0.0000000   0.0000000), wk =   0.0094787
        k(   19) = (   0.3000000   0.0000000   0.0000000), wk =   0.0094787
        k(   20) = (   0.3166667   0.0000000   0.0000000), wk =   0.0094787
        k(   21) = (   0.3333333   0.0000000   0.0000000), wk =   0.0094787
        k(   22) = (   0.3500000   0.0000000   0.0000000), wk =   0.0094787
        k(   23) = (   0.3666667   0.0000000   0.0000000), wk =   0.0094787
        k(   24) = (   0.3833333   0.0000000   0.0000000), wk =   0.0094787
        k(   25) = (   0.4000000   0.0000000   0.0000000), wk =   0.0094787
        k(   26) = (   0.4166667   0.0000000   0.0000000), wk =   0.0094787
        k(   27) = (   0.4333333   0.0000000   0.0000000), wk =   0.0094787
        k(   28) = (   0.4500000   0.0000000   0.0000000), wk =   0.0094787
        k(   29) = (   0.4666667   0.0000000   0.0000000), wk =   0.0094787
        k(   30) = (   0.4833333   0.0000000   0.0000000), wk =   0.0094787
        k(   31) = (   0.5000000   0.0000000   0.0000000), wk =   0.0094787
        k(   32) = (   0.5000000   0.0000000   0.0166667), wk =   0.0094787
        k(   33) = (   0.5000000   0.0000000   0.0333333), wk =   0.0094787
        k(   34) = (   0.5000000   0.0000000   0.0500000), wk =   0.0094787
        k(   35) = (   0.5000000   0.0000000   0.0666667), wk =   0.0094787
        k(   36) = (   0.5000000   0.0000000   0.0833333), wk =   0.0094787
        k(   37) = (   0.5000000   0.0000000   0.1000000), wk =   0.0094787
        k(   38) = (   0.5000000   0.0000000   0.1166667), wk =   0.0094787
        k(   39) = (   0.5000000   0.0000000   0.1333333), wk =   0.0094787
        k(   40) = (   0.5000000   0.0000000   0.1500000), wk =   0.0094787
        k(   41) = (   0.5000000   0.0000000   0.1666667), wk =   0.0094787
        k(   42) = (   0.5000000   0.0000000   0.1833333), wk =   0.0094787
        k(   43) = (   0.5000000   0.0000000   0.2000000), wk =   0.0094787
        k(   44) = (   0.5000000   0.0000000   0.2166667), wk =   0.0094787
        k(   45) = (   0.5000000   0.0000000   0.2333333), wk =   0.0094787
        k(   46) = (   0.5000000   0.0000000   0.2500000), wk =   0.0094787
        k(   47) = (   0.5000000   0.0000000   0.2666667), wk =   0.0094787
        k(   48) = (   0.5000000   0.0000000   0.2833333), wk =   0.0094787
        k(   49) = (   0.5000000   0.0000000   0.3000000), wk =   0.0094787
        k(   50) = (   0.5000000   0.0000000   0.3166667), wk =   0.0094787
        k(   51) = (   0.5000000   0.0000000   0.3333333), wk =   0.0094787
        k(   52) = (   0.5000000   0.0000000   0.3500000), wk =   0.0094787
        k(   53) = (   0.5000000   0.0000000   0.3666667), wk =   0.0094787
        k(   54) = (   0.5000000   0.0000000   0.3833333), wk =   0.0094787
        k(   55) = (   0.5000000   0.0000000   0.4000000), wk =   0.0094787
        k(   56) = (   0.5000000   0.0000000   0.4166667), wk =   0.0094787
        k(   57) = (   0.5000000   0.0000000   0.4333333), wk =   0.0094787
        k(   58) = (   0.5000000   0.0000000   0.4500000), wk =   0.0094787
        k(   59) = (   0.5000000   0.0000000   0.4666667), wk =   0.0094787
        k(   60) = (   0.5000000   0.0000000   0.4833333), wk =   0.0094787
        k(   61) = (   0.5000000   0.0000000   0.5000000), wk =   0.0094787
        k(   62) = (   0.4833333   0.0000000   0.4833333), wk =   0.0094787
        k(   63) = (   0.4666667   0.0000000   0.4666667), wk =   0.0094787
        k(   64) = (   0.4500000   0.0000000   0.4500000), wk =   0.0094787
        k(   65) = (   0.4333333   0.0000000   0.4333333), wk =   0.0094787
        k(   66) = (   0.4166667   0.0000000   0.4166667), wk =   0.0094787
        k(   67) = (   0.4000000   0.0000000   0.4000000), wk =   0.0094787
        k(   68) = (   0.3833333   0.0000000   0.3833333), wk =   0.0094787
        k(   69) = (   0.3666667   0.0000000   0.3666667), wk =   0.0094787
        k(   70) = (   0.3500000   0.0000000   0.3500000), wk =   0.0094787
        k(   71) = (   0.3333333   0.0000000   0.3333333), wk =   0.0094787
        k(   72) = (   0.3166667   0.0000000   0.3166667), wk =   0.0094787
        k(   73) = (   0.3000000   0.0000000   0.3000000), wk =   0.0094787
        k(   74) = (   0.2833333   0.0000000   0.2833333), wk =   0.0094787
        k(   75) = (   0.2666667   0.0000000   0.2666667), wk =   0.0094787
        k(   76) = (   0.2500000   0.0000000   0.2500000), wk =   0.0094787
        k(   77) = (   0.2333333   0.0000000   0.2333333), wk =   0.0094787
        k(   78) = (   0.2166667   0.0000000   0.2166667), wk =   0.0094787
        k(   79) = (   0.2000000   0.0000000   0.2000000), wk =   0.0094787
        k(   80) = (   0.1833333   0.0000000   0.1833333), wk =   0.0094787
        k(   81) = (   0.1666667   0.0000000   0.1666667), wk =   0.0094787
        k(   82) = (   0.1500000   0.0000000   0.1500000), wk =   0.0094787
        k(   83) = (   0.1333333   0.0000000   0.1333333), wk =   0.0094787
        k(   84) = (   0.1166667   0.0000000   0.1166667), wk =   0.0094787
        k(   85) = (   0.1000000   0.0000000   0.1000000), wk =   0.0094787
        k(   86) = (   0.0833333   0.0000000   0.0833333), wk =   0.0094787
        k(   87) = (   0.0666667   0.0000000   0.0666667), wk =   0.0094787
        k(   88) = (   0.0500000   0.0000000   0.0500000), wk =   0.0094787
        k(   89) = (   0.0333333   0.0000000   0.0333333), wk =   0.0094787
        k(   90) = (   0.0166667   0.0000000   0.0166667), wk =   0.0094787
        k(   91) = (   0.0000000   0.0000000   0.0000000), wk =   0.0094787
        k(   92) = (   0.0166667   0.0166667   0.0000000), wk =   0.0094787
        k(   93) = (   0.0333333   0.0333333   0.0000000), wk =   0.0094787
        k(   94) = (   0.0500000   0.0500000   0.0000000), wk =   0.0094787
        k(   95) = (   0.0666667   0.0666667   0.0000000), wk =   0.0094787
        k(   96) = (   0.0833333   0.0833333   0.0000000), wk =   0.0094787
        k(   97) = (   0.1000000   0.1000000   0.0000000), wk =   0.0094787
        k(   98) = (   0.1166667   0.1166667   0.0000000), wk =   0.0094787
        k(   99) = (   0.1333333   0.1333333   0.0000000), wk =   0.0094787
        k(  100) = (   0.1500000   0.1500000   0.0000000), wk =   0.0094787
        k(  101) = (   0.1666667   0.1666667   0.0000000), wk =   0.0094787
        k(  102) = (   0.1833333   0.1833333   0.0000000), wk =   0.0094787
        k(  103) = (   0.2000000   0.2000000   0.0000000), wk =   0.0094787
        k(  104) = (   0.2166667   0.2166667   0.0000000), wk =   0.0094787
        k(  105) = (   0.2333333   0.2333333   0.0000000), wk =   0.0094787
        k(  106) = (   0.2500000   0.2500000   0.0000000), wk =   0.0094787
        k(  107) = (   0.2666667   0.2666667   0.0000000), wk =   0.0094787
        k(  108) = (   0.2833333   0.2833333   0.0000000), wk =   0.0094787
        k(  109) = (   0.3000000   0.3000000   0.0000000), wk =   0.0094787
        k(  110) = (   0.3166667   0.3166667   0.0000000), wk =   0.0094787
        k(  111) = (   0.3333333   0.3333333   0.0000000), wk =   0.0094787
        k(  112) = (   0.3500000   0.3500000   0.0000000), wk =   0.0094787
        k(  113) = (   0.3666667   0.3666667   0.0000000), wk =   0.0094787
        k(  114) = (   0.3833333   0.3833333   0.0000000), wk =   0.0094787
        k(  115) = (   0.4000000   0.4000000   0.0000000), wk =   0.0094787
        k(  116) = (   0.4166667   0.4166667   0.0000000), wk =   0.0094787
        k(  117) = (   0.4333333   0.4333333   0.0000000), wk =   0.0094787
        k(  118) = (   0.4500000   0.4500000   0.0000000), wk =   0.0094787
        k(  119) = (   0.4666667   0.4666667   0.0000000), wk =   0.0094787
        k(  120) = (   0.4833333   0.4833333   0.0000000), wk =   0.0094787
        k(  121) = (   0.5000000   0.5000000   0.0000000), wk =   0.0094787
        k(  122) = (   0.5000000   0.5000000   0.0166667), wk =   0.0094787
        k(  123) = (   0.5000000   0.5000000   0.0333333), wk =   0.0094787
        k(  124) = (   0.5000000   0.5000000   0.0500000), wk =   0.0094787
        k(  125) = (   0.5000000   0.5000000   0.0666667), wk =   0.0094787
        k(  126) = (   0.5000000   0.5000000   0.0833333), wk =   0.0094787
        k(  127) = (   0.5000000   0.5000000   0.1000000), wk =   0.0094787
        k(  128) = (   0.5000000   0.5000000   0.1166667), wk =   0.0094787
        k(  129) = (   0.5000000   0.5000000   0.1333333), wk =   0.0094787
        k(  130) = (   0.5000000   0.5000000   0.1500000), wk =   0.0094787
        k(  131) = (   0.5000000   0.5000000   0.1666667), wk =   0.0094787
        k(  132) = (   0.5000000   0.5000000   0.1833333), wk =   0.0094787
        k(  133) = (   0.5000000   0.5000000   0.2000000), wk =   0.0094787
        k(  134) = (   0.5000000   0.5000000   0.2166667), wk =   0.0094787
        k(  135) = (   0.5000000   0.5000000   0.2333333), wk =   0.0094787
        k(  136) = (   0.5000000   0.5000000   0.2500000), wk =   0.0094787
        k(  137) = (   0.5000000   0.5000000   0.2666667), wk =   0.0094787
        k(  138) = (   0.5000000   0.5000000   0.2833333), wk =   0.0094787
        k(  139) = (   0.5000000   0.5000000   0.3000000), wk =   0.0094787
        k(  140) = (   0.5000000   0.5000000   0.3166667), wk =   0.0094787
        k(  141) = (   0.5000000   0.5000000   0.3333333), wk =   0.0094787
        k(  142) = (   0.5000000   0.5000000   0.3500000), wk =   0.0094787
        k(  143) = (   0.5000000   0.5000000   0.3666667), wk =   0.0094787
        k(  144) = (   0.5000000   0.5000000   0.3833333), wk =   0.0094787
        k(  145) = (   0.5000000   0.5000000   0.4000000), wk =   0.0094787
        k(  146) = (   0.5000000   0.5000000   0.4166667), wk =   0.0094787
        k(  147) = (   0.5000000   0.5000000   0.4333333), wk =   0.0094787
        k(  148) = (   0.5000000   0.5000000   0.4500000), wk =   0.0094787
        k(  149) = (   0.5000000   0.5000000   0.4666667), wk =   0.0094787
        k(  150) = (   0.5000000   0.5000000   0.4833333), wk =   0.0094787
        k(  151) = (   0.5000000   0.5000000   0.5000000), wk =   0.0094787
        k(  152) = (   0.4833333   0.4833333   0.5000000), wk =   0.0094787
        k(  153) = (   0.4666667   0.4666667   0.5000000), wk =   0.0094787
        k(  154) = (   0.4500000   0.4500000   0.5000000), wk =   0.0094787
        k(  155) = (   0.4333333   0.4333333   0.5000000), wk =   0.0094787
        k(  156) = (   0.4166667   0.4166667   0.5000000), wk =   0.0094787
        k(  157) = (   0.4000000   0.4000000   0.5000000), wk =   0.0094787
        k(  158) = (   0.3833333   0.3833333   0.5000000), wk =   0.0094787
        k(  159) = (   0.3666667   0.3666667   0.5000000), wk =   0.0094787
        k(  160) = (   0.3500000   0.3500000   0.5000000), wk =   0.0094787
        k(  161) = (   0.3333333   0.3333333   0.5000000), wk =   0.0094787
        k(  162) = (   0.3166667   0.3166667   0.5000000), wk =   0.0094787
        k(  163) = (   0.3000000   0.3000000   0.5000000), wk =   0.0094787
        k(  164) = (   0.2833333   0.2833333   0.5000000), wk =   0.0094787
        k(  165) = (   0.2666667   0.2666667   0.5000000), wk =   0.0094787
        k(  166) = (   0.2500000   0.2500000   0.5000000), wk =   0.0094787
        k(  167) = (   0.2333333   0.2333333   0.5000000), wk =   0.0094787
        k(  168) = (   0.2166667   0.2166667   0.5000000), wk =   0.0094787
        k(  169) = (   0.2000000   0.2000000   0.5000000), wk =   0.0094787
        k(  170) = (   0.1833333   0.1833333   0.5000000), wk =   0.0094787
        k(  171) = (   0.1666667   0.1666667   0.5000000), wk =   0.0094787
        k(  172) = (   0.1500000   0.1500000   0.5000000), wk =   0.0094787
        k(  173) = (   0.1333333   0.1333333   0.5000000), wk =   0.0094787
        k(  174) = (   0.1166667   0.1166667   0.5000000), wk =   0.0094787
        k(  175) = (   0.1000000   0.1000000   0.5000000), wk =   0.0094787
        k(  176) = (   0.0833333   0.0833333   0.5000000), wk =   0.0094787
        k(  177) = (   0.0666667   0.0666667   0.5000000), wk =   0.0094787
        k(  178) = (   0.0500000   0.0500000   0.5000000), wk =   0.0094787
        k(  179) = (   0.0333333   0.0333333   0.5000000), wk =   0.0094787
        k(  180) = (   0.0166667   0.0166667   0.5000000), wk =   0.0094787
        k(  181) = (   0.0000000   0.0000000   0.5000000), wk =   0.0094787
        k(  182) = (   0.0000000   0.0000000   0.4833333), wk =   0.0094787
        k(  183) = (   0.0000000   0.0000000   0.4666667), wk =   0.0094787
        k(  184) = (   0.0000000   0.0000000   0.4500000), wk =   0.0094787
        k(  185) = (   0.0000000   0.0000000   0.4333333), wk =   0.0094787
        k(  186) = (   0.0000000   0.0000000   0.4166667), wk =   0.0094787
        k(  187) = (   0.0000000   0.0000000   0.4000000), wk =   0.0094787
        k(  188) = (   0.0000000   0.0000000   0.3833333), wk =   0.0094787
        k(  189) = (   0.0000000   0.0000000   0.3666667), wk =   0.0094787
        k(  190) = (   0.0000000   0.0000000   0.3500000), wk =   0.0094787
        k(  191) = (   0.0000000   0.0000000   0.3333333), wk =   0.0094787
        k(  192) = (   0.0000000   0.0000000   0.3166667), wk =   0.0094787
        k(  193) = (   0.0000000   0.0000000   0.3000000), wk =   0.0094787
        k(  194) = (   0.0000000   0.0000000   0.2833333), wk =   0.0094787
        k(  195) = (   0.0000000   0.0000000   0.2666667), wk =   0.0094787
        k(  196) = (   0.0000000   0.0000000   0.2500000), wk =   0.0094787
        k(  197) = (   0.0000000   0.0000000   0.2333333), wk =   0.0094787
        k(  198) = (   0.0000000   0.0000000   0.2166667), wk =   0.0094787
        k(  199) = (   0.0000000   0.0000000   0.2000000), wk =   0.0094787
        k(  200) = (   0.0000000   0.0000000   0.1833333), wk =   0.0094787
        k(  201) = (   0.0000000   0.0000000   0.1666667), wk =   0.0094787
        k(  202) = (   0.0000000   0.0000000   0.1500000), wk =   0.0094787
        k(  203) = (   0.0000000   0.0000000   0.1333333), wk =   0.0094787
        k(  204) = (   0.0000000   0.0000000   0.1166667), wk =   0.0094787
        k(  205) = (   0.0000000   0.0000000   0.1000000), wk =   0.0094787
        k(  206) = (   0.0000000   0.0000000   0.0833333), wk =   0.0094787
        k(  207) = (   0.0000000   0.0000000   0.0666667), wk =   0.0094787
        k(  208) = (   0.0000000   0.0000000   0.0500000), wk =   0.0094787
        k(  209) = (   0.0000000   0.0000000   0.0333333), wk =   0.0094787
        k(  210) = (   0.0000000   0.0000000   0.0166667), wk =   0.0094787
        k(  211) = (   0.0000000   0.0000000   0.0000000), wk =   0.0094787

     Dense  grid:    55707 G-vectors     FFT dimensions: (  48,  48,  48)

     Smooth grid:    13997 G-vectors     FFT dimensions: (  30,  30,  30)

     Largest allocated arrays     est. size (Mb)     dimensions
        Kohn-Sham Wavefunctions         0.55 Mb     (   1791,   20)
        NL pseudopotentials             1.64 Mb     (   1791,   60)
        Each V/rho on FFT grid          1.69 Mb     ( 110592)
        Each G-vector array             0.43 Mb     (  55707)
        G-vector shells                 0.00 Mb     (    470)
     Largest temporary arrays     est. size (Mb)     dimensions
        Auxiliary wavefunctions         2.19 Mb     (   1791,   80)
        Each subspace H/S matrix        0.10 Mb     (  80,  80)
        Each <psi_i|beta_j> matrix      0.02 Mb     (     60,   20)

     The potential is recalculated from file :
     ./tmp/batio3.save/charge-density.dat

     Starting wfc are   27 randomized atomic wfcs

     total cpu time spent up to now is        8.4 secs

     per-process dynamical memory:    36.0 Mb

     Band Structure Calculation
     Davidson diagonalization with overlap

     Computing kpt #:     1
     total cpu time spent up to now is       10.1 secs

     Computing kpt #:     2
     total cpu time spent up to now is       11.8 secs

     Computing kpt #:     3
     total cpu time spent up to now is       13.5 secs

     Computing kpt #:     4
     total cpu time spent up to now is       15.2 secs

     Computing kpt #:     5
     total cpu time spent up to now is       16.8 secs

     Computing kpt #:     6
     total cpu time spent up to now is       18.5 secs

     Computing kpt #:     7
     total cpu time spent up to now is       20.2 secs

     Computing kpt #:     8
     total cpu time spent up to now is       21.9 secs

     Computing kpt #:     9
     total cpu time spent up to now is       23.5 secs

     Computing kpt #:    10
     total cpu time spent up to now is       25.2 secs

     Computing kpt #:    11
     total cpu time spent up to now is       26.9 secs

     Computing kpt #:    12
     total cpu time spent up to now is       28.6 secs

     Computing kpt #:    13
     total cpu time spent up to now is       30.2 secs

     Computing kpt #:    14
     total cpu time spent up to now is       31.8 secs

     Computing kpt #:    15
     total cpu time spent up to now is       33.5 secs

     Computing kpt #:    16
     total cpu time spent up to now is       35.2 secs

     Computing kpt #:    17
     total cpu time spent up to now is       36.8 secs

     Computing kpt #:    18
     total cpu time spent up to now is       38.4 secs

     Computing kpt #:    19
     total cpu time spent up to now is       40.1 secs

     Computing kpt #:    20
     total cpu time spent up to now is       41.7 secs

     Computing kpt #:    21
     total cpu time spent up to now is       43.4 secs

     Computing kpt #:    22
     total cpu time spent up to now is       45.0 secs

     Computing kpt #:    23
     total cpu time spent up to now is       46.6 secs

     Computing kpt #:    24
     total cpu time spent up to now is       48.2 secs

     Computing kpt #:    25
     total cpu time spent up to now is       49.8 secs

     Computing kpt #:    26
     total cpu time spent up to now is       51.4 secs

     Computing kpt #:    27
     total cpu time spent up to now is       53.0 secs

     Computing kpt #:    28
     total cpu time spent up to now is       54.6 secs

     Computing kpt #:    29
     total cpu time spent up to now is       56.2 secs

     Computing kpt #:    30
     total cpu time spent up to now is       57.8 secs

     Computing kpt #:    31
     total cpu time spent up to now is       59.4 secs

     Computing kpt #:    32
     total cpu time spent up to now is       61.0 secs

     Computing kpt #:    33
     total cpu time spent up to now is       62.6 secs

     Computing kpt #:    34
     total cpu time spent up to now is       64.2 secs

     Computing kpt #:    35
     total cpu time spent up to now is       65.8 secs

     Computing kpt #:    36
     total cpu time spent up to now is       67.4 secs

     Computing kpt #:    37
     total cpu time spent up to now is       69.0 secs

     Computing kpt #:    38
     total cpu time spent up to now is       70.6 secs

     Computing kpt #:    39
     total cpu time spent up to now is       72.2 secs

     Computing kpt #:    40
     total cpu time spent up to now is       73.8 secs

     Computing kpt #:    41
     total cpu time spent up to now is       75.4 secs

     Computing kpt #:    42
     total cpu time spent up to now is       77.0 secs

     Computing kpt #:    43
     total cpu time spent up to now is       78.5 secs

     Computing kpt #:    44
     total cpu time spent up to now is       80.0 secs

     Computing kpt #:    45
     total cpu time spent up to now is       81.6 secs

     Computing kpt #:    46
     total cpu time spent up to now is       83.2 secs

     Computing kpt #:    47
     total cpu time spent up to now is       84.8 secs

     Computing kpt #:    48
     total cpu time spent up to now is       86.4 secs

     Computing kpt #:    49
     total cpu time spent up to now is       87.8 secs

     Computing kpt #:    50
     total cpu time spent up to now is       89.4 secs

     Computing kpt #:    51
     total cpu time spent up to now is       90.9 secs

     Computing kpt #:    52
     total cpu time spent up to now is       92.4 secs

     Computing kpt #:    53
     total cpu time spent up to now is       94.0 secs

     Computing kpt #:    54
     total cpu time spent up to now is       95.4 secs

     Computing kpt #:    55
     total cpu time spent up to now is       97.0 secs

     Computing kpt #:    56
     total cpu time spent up to now is       98.6 secs

     Computing kpt #:    57
     total cpu time spent up to now is      100.1 secs

     Computing kpt #:    58
     total cpu time spent up to now is      101.7 secs

     Computing kpt #:    59
     total cpu time spent up to now is      103.3 secs

     Computing kpt #:    60
     total cpu time spent up to now is      104.9 secs

     Computing kpt #:    61
     total cpu time spent up to now is      106.5 secs

     Computing kpt #:    62
     total cpu time spent up to now is      108.0 secs

     Computing kpt #:    63
     total cpu time spent up to now is      109.7 secs

     Computing kpt #:    64
     total cpu time spent up to now is      111.3 secs

     Computing kpt #:    65
     total cpu time spent up to now is      112.9 secs

     Computing kpt #:    66
     total cpu time spent up to now is      114.5 secs

     Computing kpt #:    67
     total cpu time spent up to now is      116.0 secs

     Computing kpt #:    68
     total cpu time spent up to now is      117.5 secs

     Computing kpt #:    69
     total cpu time spent up to now is      119.2 secs

     Computing kpt #:    70
     total cpu time spent up to now is      120.8 secs

     Computing kpt #:    71
     total cpu time spent up to now is      122.4 secs

     Computing kpt #:    72
     total cpu time spent up to now is      124.0 secs

     Computing kpt #:    73
     total cpu time spent up to now is      125.6 secs

     Computing kpt #:    74
     total cpu time spent up to now is      127.2 secs

     Computing kpt #:    75
     total cpu time spent up to now is      128.8 secs

     Computing kpt #:    76
     total cpu time spent up to now is      130.4 secs

     Computing kpt #:    77
     total cpu time spent up to now is      132.0 secs

     Computing kpt #:    78
     total cpu time spent up to now is      133.6 secs

     Computing kpt #:    79
     total cpu time spent up to now is      135.2 secs

     Computing kpt #:    80
     total cpu time spent up to now is      136.9 secs

     Computing kpt #:    81
     total cpu time spent up to now is      138.5 secs

     Computing kpt #:    82
     total cpu time spent up to now is      140.1 secs

     Computing kpt #:    83
     total cpu time spent up to now is      141.8 secs

     Computing kpt #:    84
     total cpu time spent up to now is      143.5 secs

     Computing kpt #:    85
     total cpu time spent up to now is      145.1 secs

     Computing kpt #:    86
     total cpu time spent up to now is      146.8 secs

     Computing kpt #:    87
     total cpu time spent up to now is      148.5 secs

     Computing kpt #:    88
     total cpu time spent up to now is      150.1 secs

     Computing kpt #:    89
     total cpu time spent up to now is      151.8 secs

     Computing kpt #:    90
     total cpu time spent up to now is      153.5 secs

     Computing kpt #:    91
     total cpu time spent up to now is      155.2 secs

     Computing kpt #:    92
     total cpu time spent up to now is      156.9 secs

     Computing kpt #:    93
     total cpu time spent up to now is      158.6 secs

     Computing kpt #:    94
     total cpu time spent up to now is      160.3 secs

     Computing kpt #:    95
     total cpu time spent up to now is      161.9 secs

     Computing kpt #:    96
     total cpu time spent up to now is      163.6 secs

     Computing kpt #:    97
     total cpu time spent up to now is      165.3 secs

     Computing kpt #:    98
     total cpu time spent up to now is      167.0 secs

     Computing kpt #:    99
     total cpu time spent up to now is      168.7 secs

     Computing kpt #:   100
     total cpu time spent up to now is      170.4 secs

     Computing kpt #:   101
     total cpu time spent up to now is      172.1 secs

     Computing kpt #:   102
     total cpu time spent up to now is      173.7 secs

     Computing kpt #:   103
     total cpu time spent up to now is      175.4 secs

     Computing kpt #:   104
     total cpu time spent up to now is      177.1 secs

     Computing kpt #:   105
     total cpu time spent up to now is      178.8 secs

     Computing kpt #:   106
     total cpu time spent up to now is      180.2 secs

     ethr =  2.50E-13,  avg # of iterations = 21.2

     total cpu time spent up to now is      180.2 secs

     End of band structure calculation

          k = 0.0000 0.0000 0.0000     band energies (ev):

   -45.3105 -21.5719 -21.5719 -21.5719 -13.5961  -5.9147  -5.2610  -5.2610
     1.2200   1.2200   1.2200   8.8041   8.8041   8.8041   9.8869   9.8869
     9.8869  10.9847  10.9847  10.9847

          k = 0.0167 0.0000 0.0000     band energies (ev):

   -45.3105 -21.5718 -21.5717 -21.5717 -13.5957  -5.9148  -5.2609  -5.2609
     1.2206   1.2206   1.2215   8.7988   8.8032   8.8032   9.8831   9.8831
     9.8840  10.9780  10.9833  10.9833

          k = 0.0333 0.0000 0.0000     band energies (ev):

   -45.3105 -21.5724 -21.5716 -21.5716 -13.5945  -5.9153  -5.2606  -5.2604
     1.2221   1.2221   1.2259   8.7830   8.8005   8.8005   9.8716   9.8716
     9.8753  10.9525  10.9767  10.9767

          k = 0.0500 0.0000 0.0000     band energies (ev):

   -45.3105 -21.5733 -21.5716 -21.5716 -13.5924  -5.9162  -5.2601  -5.2596
     1.2247   1.2247   1.2330   8.7569   8.7959   8.7959   9.8529   9.8529
     9.8611  10.9109  10.9643  10.9643

          k = 0.0667 0.0000 0.0000     band energies (ev):

   -45.3105 -21.5747 -21.5715 -21.5715 -13.5896  -5.9178  -5.2593  -5.2580
     1.2283   1.2283   1.2430   8.7205   8.7894   8.7894   9.8276   9.8276
     9.8415  10.8547  10.9475  10.9475

          k = 0.0833 0.0000 0.0000     band energies (ev):

   -45.3104 -21.5763 -21.5715 -21.5715 -13.5860  -5.9203  -5.2584  -5.2555
     1.2328   1.2328   1.2556   8.6749   8.7809   8.7809   9.7967   9.7967
     9.8169  10.7862  10.9271  10.9271

          k = 0.1000 0.0000 0.0000     band energies (ev):

   -45.3104 -21.5783 -21.5714 -21.5714 -13.5816  -5.9239  -5.2572  -5.2518
     1.2383   1.2383   1.2706   8.6200   8.7702   8.7702   9.7607   9.7607
     9.7878  10.7073  10.9035  10.9035

          k = 0.1167 0.0000 0.0000     band energies (ev):

   -45.3104 -21.5806 -21.5714 -21.5714 -13.5766  -5.9289  -5.2559  -5.2466
     1.2446   1.2446   1.2880   8.5567   8.7571   8.7571   9.7213   9.7213
     9.7544  10.6202  10.8773  10.8773

          k = 0.1333 0.0000 0.0000     band energies (ev):

   -45.3103 -21.5831 -21.5713 -21.5713 -13.5710  -5.9355  -5.2544  -5.2395
     1.2518   1.2518   1.3075   8.4859   8.7419   8.7419   9.6794   9.6794
     9.7178  10.5270  10.8492  10.8492

          k = 0.1500 0.0000 0.0000     band energies (ev):

   -45.3103 -21.5859 -21.5712 -21.5712 -13.5647  -5.9440  -5.2528  -5.2302
     1.2597   1.2597   1.3288   8.4083   8.7241   8.7241   9.6360   9.6360
     9.6778  10.4295  10.8196  10.8196

          k = 0.1667 0.0000 0.0000     band energies (ev):

   -45.3102 -21.5886 -21.5711 -21.5711 -13.5580  -5.9544  -5.2510  -5.2187
     1.2682   1.2682   1.3518   8.3251   8.7039   8.7039   9.5923   9.5923
     9.6369  10.3299  10.7889  10.7889

          k = 0.1833 0.0000 0.0000     band energies (ev):

   -45.3101 -21.5917 -21.5709 -21.5709 -13.5508  -5.9668  -5.2492  -5.2048
     1.2774   1.2774   1.3762   8.2371   8.6809   8.6809   9.5493   9.5493
     9.5933  10.2291  10.7575  10.7575

          k = 0.2000 0.0000 0.0000     band energies (ev):

   -45.3101 -21.5950 -21.5708 -21.5708 -13.5433  -5.9811  -5.2472  -5.1887
     1.2870   1.2870   1.4018   8.1448   8.6553   8.6553   9.5076   9.5076
     9.5485  10.1284  10.7257  10.7257

          k = 0.2167 0.0000 0.0000     band energies (ev):

   -45.3100 -21.5985 -21.5706 -21.5706 -13.5354  -5.9972  -5.2452  -5.1704
     1.2970   1.2970   1.4281   8.0497   8.6274   8.6274   9.4680   9.4680
     9.5035  10.0281  10.6938  10.6938

          k = 0.2333 0.0000 0.0000     band energies (ev):

   -45.3099 -21.6019 -21.5706 -21.5706 -13.5274  -6.0147  -5.2431  -5.1501
     1.3073   1.3073   1.4549   7.9533   8.5967   8.5967   9.4308   9.4308
     9.4579   9.9311  10.6623  10.6623

          k = 0.2500 0.0000 0.0000     band energies (ev):

   -45.3099 -21.6054 -21.5705 -21.5705 -13.5192  -6.0335  -5.2410  -5.1282
     1.3178   1.3178   1.4821   7.8558   8.5644   8.5644   9.3965   9.3965
     9.4128   9.8370  10.6314  10.6314

          k = 0.2667 0.0000 0.0000     band energies (ev):

   -45.3098 -21.6087 -21.5703 -21.5703 -13.5110  -6.0532  -5.2389  -5.1051
     1.3284   1.3284   1.5092   7.7590   8.5308   8.5308   9.3655   9.3655
     9.3692   9.7467  10.6015  10.6015

          k = 0.2833 0.0000 0.0000     band energies (ev):

   -45.3097 -21.6122 -21.5702 -21.5702 -13.5029  -6.0735  -5.2368  -5.0811
     1.3389   1.3389   1.5359   7.6635   8.4961   8.4961   9.3261   9.3374
     9.3374   9.6605  10.5725  10.5725

          k = 0.3000 0.0000 0.0000     band energies (ev):

   -45.3097 -21.6157 -21.5701 -21.5701 -13.4949  -6.0939  -5.2348  -5.0566
     1.3493   1.3493   1.5620   7.5705   8.4610   8.4610   9.2848   9.3121
     9.3121   9.5785  10.5443  10.5443

          k = 0.3167 0.0000 0.0000     band energies (ev):

   -45.3096 -21.6190 -21.5700 -21.5700 -13.4871  -6.1141  -5.2328  -5.0320
     1.3593   1.3593   1.5872   7.4811   8.4262   8.4262   9.2455   9.2898
     9.2898   9.5022  10.5182  10.5182

          k = 0.3333 0.0000 0.0000     band energies (ev):

   -45.3095 -21.6221 -21.5699 -21.5699 -13.4797  -6.1338  -5.2309  -5.0079
     1.3690   1.3690   1.6112   7.3960   8.3921   8.3921   9.2085   9.2700
     9.2700   9.4313  10.4937  10.4937

          k = 0.3500 0.0000 0.0000     band energies (ev):

   -45.3095 -21.6249 -21.5697 -21.5697 -13.4727  -6.1526  -5.2291  -4.9846
     1.3782   1.3782   1.6338   7.3165   8.3600   8.3600   9.1744   9.2529
     9.2529   9.3666  10.4713  10.4713

          k = 0.3667 0.0000 0.0000     band energies (ev):

   -45.3094 -21.6275 -21.5696 -21.5696 -13.4662  -6.1704  -5.2275  -4.9624
     1.3867   1.3867   1.6548   7.2433   8.3294   8.3294   9.1431   9.2381
     9.2381   9.3083  10.4507  10.4507

          k = 0.3833 0.0000 0.0000     band energies (ev):

   -45.3094 -21.6298 -21.5694 -21.5694 -13.4602  -6.1866  -5.2260  -4.9419
     1.3945   1.3945   1.6738   7.1770   8.3017   8.3017   9.1152   9.2257
     9.2257   9.2556  10.4324  10.4324

          k = 0.4000 0.0000 0.0000     band energies (ev):

   -45.3093 -21.6320 -21.5693 -21.5693 -13.4549  -6.2013  -5.2246  -4.9234
     1.4015   1.4015   1.6907   7.1179   8.2764   8.2764   9.0904   9.2095
     9.2150   9.2150  10.4162  10.4162

          k = 0.4167 0.0000 0.0000     band energies (ev):

   -45.3093 -21.6339 -21.5692 -21.5692 -13.4503  -6.2140  -5.2235  -4.9071
     1.4076   1.4076   1.7053   7.0670   8.2544   8.2544   9.0691   9.1701
     9.2061   9.2061  10.4023  10.4023

          k = 0.4333 0.0000 0.0000     band energies (ev):

   -45.3092 -21.6358 -21.5693 -21.5693 -13.4464  -6.2247  -5.2225  -4.8934
     1.4126   1.4126   1.7175   7.0244   8.2356   8.2356   9.0504   9.1376
     9.1988   9.1988  10.3909  10.3909

          k = 0.4500 0.0000 0.0000     band energies (ev):

   -45.3092 -21.6370 -21.5692 -21.5692 -13.4434  -6.2332  -5.2218  -4.8825
     1.4166   1.4166   1.7271   6.9911   8.2210   8.2210   9.0366   9.1122
     9.1933   9.1933  10.3819  10.3819

          k = 0.4667 0.0000 0.0000     band energies (ev):

   -45.3092 -21.6380 -21.5692 -21.5692 -13.4412  -6.2393  -5.2212  -4.8745
     1.4196   1.4196   1.7341   6.9670   8.2104   8.2104   9.0267   9.0940
     9.1894   9.1894  10.3755  10.3755

          k = 0.4833 0.0000 0.0000     band energies (ev):

   -45.3092 -21.6385 -21.5690 -21.5690 -13.4399  -6.2430  -5.2209  -4.8697
     1.4213   1.4213   1.7383   6.9527   8.2041   8.2041   9.0207   9.0832
     9.1875   9.1875  10.3722  10.3722

          k = 0.5000 0.0000 0.0000     band energies (ev):

   -45.3092 -21.6384 -21.5689 -21.5689 -13.4394  -6.2442  -5.2208  -4.8680
     1.4219   1.4219   1.7397   6.9484   8.2019   8.2019   9.0187   9.0803
     9.1870   9.1870  10.3714  10.3714

          k = 0.5000 0.0000 0.0167     band energies (ev):

   -45.3092 -21.6385 -21.5693 -21.5689 -13.4392  -6.2427  -5.2205  -4.8689
     1.4211   1.4226   1.7380   6.9474   8.2020   8.2020   8.9848   9.0455
     9.1840   9.2573  10.3639  10.3669

          k = 0.5000 0.0000 0.0333     band energies (ev):

   -45.3092 -21.6385 -21.5699 -21.5689 -13.4384  -6.2382  -5.2194  -4.8712
     1.4187   1.4245   1.7331   6.9454   8.2021   8.2021   8.8821   9.0489
     9.1754   9.3649  10.3453  10.3545

          k = 0.5000 0.0000 0.0500     band energies (ev):

   -45.3091 -21.6384 -21.5708 -21.5689 -13.4371  -6.2308  -5.2178  -4.8750
     1.4149   1.4278   1.7249   6.9423   8.2019   8.2023   8.7691   9.0651
     9.1613   9.4754  10.3154  10.3341

          k = 0.5000 0.0000 0.0667     band energies (ev):

   -45.3091 -21.6384 -21.5718 -21.5690 -13.4354  -6.2205  -5.2155  -4.8804
     1.4095   1.4323   1.7136   6.9379   8.2008   8.2026   8.6546   9.0884
     9.1416   9.5852  10.2762  10.3061

          k = 0.5000 0.0000 0.0833     band energies (ev):

   -45.3091 -21.6383 -21.5734 -21.5689 -13.4332  -6.2073  -5.2126  -4.8872
     1.4029   1.4381   1.6994   6.9326   8.1971   8.2030   8.5403   9.1170
     9.1184   9.6931  10.2299  10.2722

          k = 0.5000 0.0000 0.1000     band energies (ev):

   -45.3091 -21.6382 -21.5754 -21.5689 -13.4305  -6.1914  -5.2093  -4.8954
     1.3950   1.4450   1.6824   6.9266   8.1889   8.2034   8.4268   9.0877
     9.1541   9.7981  10.1794  10.2330

          k = 0.5000 0.0000 0.1167     band energies (ev):

   -45.3090 -21.6380 -21.5775 -21.5688 -13.4275  -6.1730  -5.2054  -4.9048
     1.3861   1.4530   1.6630   6.9200   8.1767   8.2040   8.3148   9.0540
     9.1957   9.9005  10.1277  10.1893

          k = 0.5000 0.0000 0.1333     band energies (ev):

   -45.3090 -21.6378 -21.5799 -21.5687 -13.4240  -6.1521  -5.2011  -4.9154
     1.3763   1.4621   1.6413   6.9127   8.1576   8.2046   8.2047   9.0163
     9.2421   9.9992  10.0777  10.1422

          k = 0.5000 0.0000 0.1500     band energies (ev):

   -45.3089 -21.6375 -21.5825 -21.5685 -13.4202  -6.1289  -5.1965  -4.9270
     1.3657   1.4721   1.6177   6.9053   8.0969   8.1307   8.2055   8.9753
     9.2932  10.0322  10.0925  10.0943

          k = 0.5000 0.0000 0.1667     band energies (ev):

   -45.3088 -21.6373 -21.5855 -21.5684 -13.4161  -6.1036  -5.1917  -4.9397
     1.3546   1.4830   1.5926   6.8973   7.9916   8.0947   8.2062   8.9313
     9.3477   9.9936  10.0414  10.1850

          k = 0.5000 0.0000 0.1833     band energies (ev):

   -45.3088 -21.6371 -21.5886 -21.5683 -13.4117  -6.0765  -5.1868  -4.9531
     1.3432   1.4946   1.5661   6.8891   7.8892   8.0490   8.2069   8.8847
     9.4053   9.9632   9.9889  10.2708

          k = 0.5000 0.0000 0.2000     band energies (ev):

   -45.3087 -21.6368 -21.5917 -21.5682 -13.4071  -6.0477  -5.1818  -4.9672
     1.3315   1.5069   1.5388   6.8808   7.7900   7.9940   8.2073   8.8365
     9.4653   9.9362   9.9431  10.3524

          k = 0.5000 0.0000 0.2167     band energies (ev):

   -45.3086 -21.6365 -21.5949 -21.5679 -13.4023  -6.0175  -5.1768  -4.9818
     1.3199   1.5109   1.5197   6.8723   7.6947   7.9309   8.2084   8.7871
     9.5274   9.8839   9.9324  10.4288

          k = 0.5000 0.0000 0.2333     band energies (ev):

   -45.3086 -21.6363 -21.5984 -21.5677 -13.3974  -5.9862  -5.1721  -4.9968
     1.3083   1.4827   1.5329   6.8634   7.6027   7.8599   8.2092   8.7368
     9.5902   9.8331   9.9312  10.4998

          k = 0.5000 0.0000 0.2500     band energies (ev):

   -45.3085 -21.6360 -21.6018 -21.5676 -13.3925  -5.9540  -5.1677  -5.0120
     1.2970   1.4546   1.5464   6.8544   7.5150   7.7834   8.2100   8.6863
     9.6534   9.7830   9.9383  10.5656

          k = 0.5000 0.0000 0.2667     band energies (ev):

   -45.3084 -21.6358 -21.6052 -21.5675 -13.3875  -5.9212  -5.1636  -5.0272
     1.2860   1.4269   1.5599   6.8448   7.4317   7.7033   8.2109   8.6361
     9.7162   9.7345   9.9524  10.6261

          k = 0.5000 0.0000 0.2833     band energies (ev):

   -45.3084 -21.6356 -21.6084 -21.5674 -13.3825  -5.8882  -5.1600  -5.0423
[...]
     8.6511  10.7747  10.7747  11.0493

          k = 0.5000 0.5000 0.3500     band energies (ev):

   -45.3068 -21.6315 -21.6315 -21.6176 -13.2789  -5.0977  -4.9995  -4.9995
     0.5433   0.5433   0.6043   6.6138   7.0763   7.3913   8.3720   8.6642
     8.6642  10.8223  10.8223  11.0531

          k = 0.5000 0.5000 0.3667     band energies (ev):

   -45.3068 -21.6314 -21.6314 -21.6202 -13.2755  -5.0699  -4.9908  -4.9908
     0.5115   0.5115   0.5594   6.6000   7.0770   7.3188   8.4404   8.6753
     8.6753  10.8681  10.8681  11.0565

          k = 0.5000 0.5000 0.3833     band energies (ev):

   -45.3067 -21.6312 -21.6312 -21.6226 -13.2724  -5.0445  -4.9828  -4.9828
     0.4827   0.4827   0.5192   6.5841   7.0781   7.2568   8.5020   8.6847
     8.6847  10.9112  10.9112  11.0603

          k = 0.5000 0.5000 0.4000     band energies (ev):

   -45.3067 -21.6311 -21.6311 -21.6250 -13.2697  -5.0217  -4.9757  -4.9757
     0.4571   0.4571   0.4838   6.5668   7.0786   7.2053   8.5562   8.6920
     8.6920  10.9501  10.9501  11.0630

          k = 0.5000 0.5000 0.4167     band energies (ev):

   -45.3066 -21.6309 -21.6309 -21.6268 -13.2673  -5.0018  -4.9695  -4.9695
     0.4351   0.4351   0.4536   6.5494   7.0792   7.1640   8.6029   8.6983
     8.6983  10.9854  10.9854  11.0658

          k = 0.5000 0.5000 0.4333     band energies (ev):

   -45.3066 -21.6308 -21.6308 -21.6282 -13.2653  -4.9852  -4.9642  -4.9642
     0.4168   0.4168   0.4286   6.5327   7.0800   7.1321   8.6416   8.7033
     8.7033  11.0153  11.0153  11.0682

          k = 0.5000 0.5000 0.4500     band energies (ev):

   -45.3066 -21.6306 -21.6306 -21.6293 -13.2637  -4.9720  -4.9601  -4.9601
     0.4024   0.4024   0.4090   6.5181   7.0803   7.1089   8.6722   8.7070
     8.7070  11.0397  11.0397  11.0698

          k = 0.5000 0.5000 0.4667     band energies (ev):

   -45.3065 -21.6306 -21.6306 -21.6298 -13.2626  -4.9624  -4.9571  -4.9571
     0.3920   0.3920   0.3950   6.5068   7.0806   7.0933   8.6941   8.7097
     8.7097  11.0577  11.0577  11.0710

          k = 0.5000 0.5000 0.4833     band energies (ev):

   -45.3065 -21.6305 -21.6305 -21.6303 -13.2619  -4.9566  -4.9553  -4.9553
     0.3858   0.3858   0.3865   6.4996   7.0808   7.0839   8.7072   8.7111
     8.7111  11.0684  11.0684  11.0717

          k = 0.5000 0.5000 0.5000     band energies (ev):

   -45.3065 -21.6305 -21.6305 -21.6305 -13.2616  -4.9547  -4.9547  -4.9547
     0.3837   0.3837   0.3837   6.4971   7.0808   7.0808   8.7116   8.7116
     8.7116  11.0719  11.0719  11.0719

          k = 0.4833 0.4833 0.5000     band energies (ev):

   -45.3065 -21.6305 -21.6304 -21.6304 -13.2621  -4.9590  -4.9559  -4.9555
     0.3861   0.3878   0.3911   6.5021   7.0823   7.0854   8.7027   8.7107
     8.7108  11.0648  11.0663  11.0700

          k = 0.4667 0.4667 0.5000     band energies (ev):

   -45.3066 -21.6306 -21.6301 -21.6299 -13.2635  -4.9718  -4.9594  -4.9578
     0.3933   0.4004   0.4131   6.5167   7.0869   7.0988   8.6758   8.7078
     8.7084  11.0430  11.0495  11.0640

          k = 0.4500 0.4500 0.5000     band energies (ev):

   -45.3066 -21.6308 -21.6296 -21.6292 -13.2658  -4.9929  -4.9651  -4.9618
     0.4054   0.4209   0.4493   6.5400   7.0945   7.1205   8.6318   8.7030
     8.7044  11.0077  11.0225  11.0534

          k = 0.4333 0.4333 0.5000     band energies (ev):

   -45.3067 -21.6311 -21.6286 -21.6281 -13.2689  -5.0218  -4.9726  -4.9671
     0.4222   0.4493   0.4987   6.5709   7.1074   7.1519   8.5721   8.6975
     8.6990  10.9604  10.9875  11.0393

          k = 0.4167 0.4167 0.5000     band energies (ev):

   -45.3067 -21.6312 -21.6268 -21.6266 -13.2730  -5.0580  -4.9814  -4.9739
     0.4435   0.4850   0.5603   6.6075   7.1267   7.1918   8.4986   8.6917
     8.6925  10.9026  10.9473  11.0209

          k = 0.4000 0.4000 0.5000     band energies (ev):

   -45.3068 -21.6314 -21.6251 -21.6248 -13.2778  -5.1010  -4.9910  -4.9820
     0.4694   0.5275   0.6325   6.6464   7.1544   7.2398   8.4126   8.6848
     8.6859  10.8349  10.9030  10.9979

          k = 0.3833 0.3833 0.5000     band energies (ev):

   -45.3069 -21.6316 -21.6231 -21.6229 -13.2834  -5.1498  -5.0009  -4.9913
     0.4994   0.5762   0.7135   6.6846   7.1927   7.2950   8.3171   8.6760
     8.6813  10.7589  10.8554  10.9702

          k = 0.3667 0.3667 0.5000     band energies (ev):

   -45.3070 -21.6319 -21.6208 -21.6206 -13.2898  -5.2038  -5.0105  -5.0017
     0.5336   0.6303   0.8013   6.7192   7.2434   7.3573   8.2154   8.6668
     8.6788  10.6772  10.8067  10.9372

          k = 0.3500 0.3500 0.5000     band energies (ev):

   -45.3071 -21.6321 -21.6185 -21.6182 -13.2968  -5.2622  -5.0193  -5.0131
     0.5715   0.6891   0.8938   6.7483   7.3072   7.4256   8.1111   8.6572
     8.6797  10.5915  10.7574  10.8987

          k = 0.3333 0.3333 0.5000     band energies (ev):

   -45.3072 -21.6323 -21.6156 -21.6153 -13.3044  -5.3240  -5.0267  -5.0252
     0.6130   0.7519   0.9886   6.7712   7.3834   7.4997   8.0080   8.6479
     8.6860  10.5041  10.7082  10.8549

          k = 0.3167 0.3167 0.5000     band energies (ev):

   -45.3073 -21.6329 -21.6129 -21.6126 -13.3125  -5.3885  -5.0381  -5.0325
     0.6576   0.8179   1.0831   6.7884   7.4685   7.5772   7.9097   8.6385
     8.6985  10.4165  10.6589  10.8037

          k = 0.3000 0.3000 0.5000     band energies (ev):

   -45.3075 -21.6332 -21.6099 -21.6097 -13.3211  -5.4547  -5.0515  -5.0361
     0.7050   0.8863   1.1747   6.8011   7.5599   7.6577   7.8203   8.6300
     8.7201  10.3310  10.6098  10.7471

          k = 0.2833 0.2833 0.5000     band energies (ev):

   -45.3076 -21.6334 -21.6068 -21.6064 -13.3300  -5.5219  -5.0651  -5.0374
     0.7548   0.9562   1.2610   6.8109   7.6528   7.7400   7.7438   8.6229
     8.7529  10.2508  10.5607  10.6845

          k = 0.2667 0.2667 0.5000     band energies (ev):

   -45.3077 -21.6338 -21.6035 -21.6033 -13.3391  -5.5894  -5.0791  -5.0361
     0.8066   1.0271   1.3395   6.8187   7.6833   7.7428   7.8215   8.6171
     8.7996  10.1769  10.5110  10.6151

          k = 0.2500 0.2500 0.5000     band energies (ev):

   -45.3079 -21.6342 -21.6004 -21.6001 -13.3484  -5.6563  -5.0930  -5.0323
     0.8598   1.0979   1.4080   6.8254   7.6417   7.8261   7.9004   8.6132
     8.8623  10.1119  10.4597  10.5394

          k = 0.2333 0.2333 0.5000     band energies (ev):

   -45.3080 -21.6347 -21.5973 -21.5969 -13.3577  -5.7221  -5.1068  -5.0260
     0.9139   1.1680   1.4649   6.8319   7.6214   7.8997   7.9750   8.6119
     8.9415  10.0584  10.4068  10.4577

          k = 0.2167 0.2167 0.5000     band energies (ev):

   -45.3081 -21.6351 -21.5940 -21.5937 -13.3670  -5.7860  -5.1204  -5.0173
     0.9684   1.2367   1.5091   6.8389   7.6243   7.9621   8.0425   8.6137
     9.0384  10.0188  10.3518  10.3706

          k = 0.2000 0.2000 0.5000     band energies (ev):

   -45.3083 -21.6355 -21.5907 -21.5904 -13.3761  -5.8475  -5.1335  -5.0064
     1.0227   1.3032   1.5402   6.8466   7.6508   8.0134   8.1009   8.6188
     9.1509   9.9947  10.2782  10.2941

          k = 0.1833 0.1833 0.5000     band energies (ev):

   -45.3084 -21.6359 -21.5878 -21.5874 -13.3850  -5.9060  -5.1461  -4.9936
     1.0760   1.3668   1.5585   6.8550   7.7004   8.0545   8.1485   8.6278
     9.2741   9.9871  10.1815  10.2326

          k = 0.1667 0.1667 0.5000     band energies (ev):

   -45.3085 -21.6363 -21.5848 -21.5845 -13.3934  -5.9611  -5.1581  -4.9794
     1.1278   1.4270   1.5650   6.8645   7.7725   8.0875   8.1846   8.6412
     9.4065   9.9963  10.0814  10.1670

          k = 0.1500 0.1500 0.5000     band energies (ev):

   -45.3086 -21.6367 -21.5822 -21.5818 -13.4015  -6.0122  -5.1693  -4.9642
     1.1774   1.4832   1.5614   6.8748   7.8646   8.1137   8.2085   8.6592
     9.5433   9.9788  10.0208  10.0961

          k = 0.1333 0.1333 0.5000     band energies (ev):

   -45.3087 -21.6370 -21.5796 -21.5793 -13.4089  -6.0590  -5.1795  -4.9485
     1.2241   1.5347   1.5496   6.8858   7.9746   8.1350   8.2229   8.6824
     9.6809   9.8749  10.0197  10.0584

          k = 0.1167 0.1167 0.5000     band energies (ev):

   -45.3088 -21.6373 -21.5772 -21.5770 -13.4157  -6.1012  -5.1888  -4.9328
     1.2672   1.5319   1.5812   6.8971   8.0994   8.1522   8.2290   8.7111
     9.7708   9.8155   9.9368  10.1055

          k = 0.1000 0.1000 0.5000     band energies (ev):

   -45.3089 -21.6376 -21.5750 -21.5748 -13.4218  -6.1383  -5.1971  -4.9178
     1.3061   1.5108   1.6224   6.9084   8.1666   8.2291   8.2361   8.7456
     9.6681   9.8467   9.9442  10.1582

          k = 0.0833 0.0833 0.5000     band energies (ev):

   -45.3090 -21.6380 -21.5734 -21.5732 -13.4270  -6.1702  -5.2042  -4.9039
     1.3402   1.4885   1.6577   6.9189   8.1776   8.2247   8.3808   8.7856
     9.5667   9.7488  10.0612  10.2121

          k = 0.0667 0.0667 0.5000     band energies (ev):

   -45.3091 -21.6382 -21.5718 -21.5717 -13.4314  -6.1966  -5.2101  -4.8917
     1.3689   1.4671   1.6869   6.9286   8.1866   8.2189   8.5308   8.8318
     9.4694   9.6432  10.1652  10.2631

          k = 0.0500 0.0500 0.5000     band energies (ev):

   -45.3091 -21.6384 -21.5706 -21.5706 -13.4349  -6.2173  -5.2147  -4.8817
     1.3918   1.4485   1.7099   6.9365   8.1933   8.2125   8.6827   8.8832
     9.3764   9.5293  10.2513  10.3074

          k = 0.0333 0.0333 0.5000     band energies (ev):

   -45.3092 -21.6385 -21.5699 -21.5698 -13.4374  -6.2323  -5.2181  -4.8743
     1.4084   1.4341   1.7264   6.9427   8.1981   8.2068   8.8334   8.9384
     9.2912   9.4077  10.3162  10.3416

          k = 0.0167 0.0167 0.5000     band energies (ev):

   -45.3092 -21.6386 -21.5693 -21.5693 -13.4389  -6.2412  -5.2201  -4.8697
     1.4185   1.4250   1.7364   6.9465   8.2009   8.2031   8.9782   8.9913
     9.2201   9.2813  10.3566  10.3631

          k = 0.0000 0.0000 0.5000     band energies (ev):

   -45.3092 -21.6384 -21.5689 -21.5689 -13.4394  -6.2442  -5.2208  -4.8680
     1.4219   1.4219   1.7397   6.9484   8.2019   8.2019   9.0187   9.0803
     9.1870   9.1870  10.3714  10.3714

          k = 0.0000 0.0000 0.4833     band energies (ev):

   -45.3092 -21.6385 -21.5690 -21.5690 -13.4399  -6.2430  -5.2209  -4.8697
     1.4213   1.4213   1.7383   6.9527   8.2041   8.2041   9.0207   9.0832
     9.1875   9.1875  10.3722  10.3722

          k = 0.0000 0.0000 0.4667     band energies (ev):

   -45.3092 -21.6380 -21.5692 -21.5692 -13.4412  -6.2393  -5.2212  -4.8745
     1.4196   1.4196   1.7341   6.9670   8.2104   8.2104   9.0267   9.0940
     9.1894   9.1894  10.3755  10.3755

          k = 0.0000 0.0000 0.4500     band energies (ev):

   -45.3092 -21.6370 -21.5692 -21.5692 -13.4434  -6.2332  -5.2218  -4.8825
     1.4166   1.4166   1.7271   6.9911   8.2210   8.2210   9.0366   9.1122
     9.1933   9.1933  10.3819  10.3819

          k = 0.0000 0.0000 0.4333     band energies (ev):

   -45.3092 -21.6358 -21.5693 -21.5693 -13.4464  -6.2247  -5.2225  -4.8934
     1.4126   1.4126   1.7175   7.0244   8.2356   8.2356   9.0504   9.1376
     9.1988   9.1988  10.3909  10.3909

          k = 0.0000 0.0000 0.4167     band energies (ev):

   -45.3093 -21.6339 -21.5692 -21.5692 -13.4503  -6.2140  -5.2235  -4.9071
     1.4076   1.4076   1.7053   7.0670   8.2544   8.2544   9.0691   9.1701
     9.2061   9.2061  10.4023  10.4023

          k = 0.0000 0.0000 0.4000     band energies (ev):

   -45.3093 -21.6320 -21.5693 -21.5693 -13.4549  -6.2013  -5.2246  -4.9234
     1.4015   1.4015   1.6907   7.1179   8.2764   8.2764   9.0904   9.2095
     9.2150   9.2150  10.4162  10.4162

          k = 0.0000 0.0000 0.3833     band energies (ev):

   -45.3094 -21.6298 -21.5694 -21.5694 -13.4602  -6.1866  -5.2260  -4.9419
     1.3945   1.3945   1.6738   7.1770   8.3017   8.3017   9.1152   9.2257
     9.2257   9.2556  10.4324  10.4324

          k = 0.0000 0.0000 0.3667     band energies (ev):

   -45.3094 -21.6275 -21.5696 -21.5696 -13.4662  -6.1704  -5.2275  -4.9624
     1.3867   1.3867   1.6548   7.2433   8.3294   8.3294   9.1431   9.2381
     9.2381   9.3083  10.4507  10.4507

          k = 0.0000 0.0000 0.3500     band energies (ev):

   -45.3095 -21.6249 -21.5697 -21.5697 -13.4727  -6.1526  -5.2291  -4.9846
     1.3782   1.3782   1.6338   7.3165   8.3600   8.3600   9.1744   9.2529
     9.2529   9.3666  10.4713  10.4713

          k = 0.0000 0.0000 0.3333     band energies (ev):

   -45.3095 -21.6221 -21.5699 -21.5699 -13.4797  -6.1338  -5.2309  -5.0079
     1.3690   1.3690   1.6112   7.3960   8.3921   8.3921   9.2085   9.2700
     9.2700   9.4313  10.4937  10.4937

          k = 0.0000 0.0000 0.3167     band energies (ev):

   -45.3096 -21.6190 -21.5700 -21.5700 -13.4871  -6.1141  -5.2328  -5.0320
     1.3593   1.3593   1.5872   7.4811   8.4262   8.4262   9.2455   9.2898
     9.2898   9.5022  10.5182  10.5182

          k = 0.0000 0.0000 0.3000     band energies (ev):

   -45.3097 -21.6157 -21.5701 -21.5701 -13.4949  -6.0939  -5.2348  -5.0566
     1.3493   1.3493   1.5620   7.5705   8.4610   8.4610   9.2848   9.3121
     9.3121   9.5785  10.5443  10.5443

          k = 0.0000 0.0000 0.2833     band energies (ev):

   -45.3097 -21.6122 -21.5702 -21.5702 -13.5029  -6.0735  -5.2368  -5.0811
     1.3389   1.3389   1.5359   7.6635   8.4961   8.4961   9.3261   9.3374
     9.3374   9.6605  10.5725  10.5725

          k = 0.0000 0.0000 0.2667     band energies (ev):

   -45.3098 -21.6087 -21.5703 -21.5703 -13.5110  -6.0532  -5.2389  -5.1051
     1.3284   1.3284   1.5092   7.7590   8.5308   8.5308   9.3655   9.3655
     9.3692   9.7467  10.6015  10.6015

          k = 0.0000 0.0000 0.2500     band energies (ev):

   -45.3099 -21.6054 -21.5705 -21.5705 -13.5192  -6.0335  -5.2410  -5.1282
     1.3178   1.3178   1.4821   7.8558   8.5644   8.5644   9.3965   9.3965
     9.4128   9.8370  10.6314  10.6314

          k = 0.0000 0.0000 0.2333     band energies (ev):

   -45.3099 -21.6019 -21.5706 -21.5706 -13.5274  -6.0147  -5.2431  -5.1501
     1.3073   1.3073   1.4549   7.9533   8.5967   8.5967   9.4308   9.4308
     9.4579   9.9311  10.6623  10.6623

          k = 0.0000 0.0000 0.2167     band energies (ev):

   -45.3100 -21.5985 -21.5706 -21.5706 -13.5354  -5.9972  -5.2452  -5.1704
     1.2970   1.2970   1.4281   8.0497   8.6274   8.6274   9.4680   9.4680
     9.5035  10.0281  10.6938  10.6938

          k = 0.0000 0.0000 0.2000     band energies (ev):

   -45.3101 -21.5950 -21.5708 -21.5708 -13.5433  -5.9811  -5.2472  -5.1887
     1.2870   1.2870   1.4018   8.1448   8.6553   8.6553   9.5076   9.5076
     9.5485  10.1284  10.7257  10.7257

          k = 0.0000 0.0000 0.1833     band energies (ev):

   -45.3101 -21.5917 -21.5709 -21.5709 -13.5508  -5.9668  -5.2492  -5.2048
     1.2774   1.2774   1.3762   8.2371   8.6809   8.6809   9.5493   9.5493
     9.5933  10.2291  10.7575  10.7575

          k = 0.0000 0.0000 0.1667     band energies (ev):

   -45.3102 -21.5886 -21.5711 -21.5711 -13.5580  -5.9544  -5.2510  -5.2187
     1.2682   1.2682   1.3518   8.3251   8.7039   8.7039   9.5923   9.5923
     9.6369  10.3299  10.7889  10.7889

          k = 0.0000 0.0000 0.1500     band energies (ev):

   -45.3103 -21.5859 -21.5712 -21.5712 -13.5647  -5.9440  -5.2528  -5.2302
     1.2597   1.2597   1.3288   8.4083   8.7241   8.7241   9.6360   9.6360
     9.6778  10.4295  10.8196  10.8196

          k = 0.0000 0.0000 0.1333     band energies (ev):

   -45.3103 -21.5831 -21.5713 -21.5713 -13.5710  -5.9355  -5.2544  -5.2395
     1.2518   1.2518   1.3075   8.4859   8.7419   8.7419   9.6794   9.6794
     9.7178  10.5270  10.8492  10.8492

          k = 0.0000 0.0000 0.1167     band energies (ev):

   -45.3104 -21.5806 -21.5714 -21.5714 -13.5766  -5.9289  -5.2559  -5.2466
     1.2446   1.2446   1.2880   8.5567   8.7571   8.7571   9.7213   9.7213
     9.7544  10.6202  10.8773  10.8773

          k = 0.0000 0.0000 0.1000     band energies (ev):

   -45.3104 -21.5783 -21.5714 -21.5714 -13.5816  -5.9239  -5.2572  -5.2518
     1.2383   1.2383   1.2706   8.6200   8.7702   8.7702   9.7607   9.7607
     9.7878  10.7073  10.9035  10.9035

          k = 0.0000 0.0000 0.0833     band energies (ev):

   -45.3104 -21.5763 -21.5715 -21.5715 -13.5860  -5.9203  -5.2584  -5.2555
     1.2328   1.2328   1.2556   8.6749   8.7809   8.7809   9.7967   9.7967
     9.8169  10.7862  10.9271  10.9271

          k = 0.0000 0.0000 0.0667     band energies (ev):

   -45.3105 -21.5747 -21.5715 -21.5715 -13.5896  -5.9178  -5.2593  -5.2580
     1.2283   1.2283   1.2430   8.7205   8.7894   8.7894   9.8276   9.8276
     9.8415  10.8547  10.9475  10.9475

          k = 0.0000 0.0000 0.0500     band energies (ev):

   -45.3105 -21.5733 -21.5716 -21.5716 -13.5924  -5.9162  -5.2601  -5.2596
     1.2247   1.2247   1.2330   8.7569   8.7959   8.7959   9.8529   9.8529
     9.8611  10.9109  10.9643  10.9643

          k = 0.0000 0.0000 0.0333     band energies (ev):

   -45.3105 -21.5724 -21.5716 -21.5716 -13.5945  -5.9153  -5.2606  -5.2604
     1.2221   1.2221   1.2259   8.7830   8.8005   8.8005   9.8716   9.8716
     9.8753  10.9525  10.9767  10.9767

          k = 0.0000 0.0000 0.0167     band energies (ev):

   -45.3105 -21.5718 -21.5717 -21.5717 -13.5957  -5.9148  -5.2609  -5.2609
     1.2206   1.2206   1.2215   8.7988   8.8032   8.8032   9.8831   9.8831
     9.8840  10.9780  10.9833  10.9833

          k = 0.0000 0.0000 0.0000     band energies (ev):

   -45.3105 -21.5719 -21.5719 -21.5719 -13.5961  -5.9147  -5.2610  -5.2610
     1.2200   1.2200   1.2200   8.8041   8.8041   8.8041   9.8869   9.8869
     9.8869  10.9847  10.9847  10.9847

     Writing output data file batio3.save

     init_run     :      7.92s CPU      8.17s WALL (       1 calls)
     electrons    :    168.86s CPU    171.83s WALL (       1 calls)

     Called by init_run:
     wfcinit      :      0.00s CPU      0.00s WALL (       1 calls)
     potinit      :      0.21s CPU      0.22s WALL (       1 calls)

     Called by electrons:
     c_bands      :    168.85s CPU    171.74s WALL (       1 calls)
     v_of_rho     :      0.18s CPU      0.20s WALL (       1 calls)
     v_h          :      0.00s CPU      0.01s WALL (       1 calls)
     v_xc         :      0.18s CPU      0.19s WALL (       1 calls)
     newd         :      1.13s CPU      1.18s WALL (       1 calls)

     Called by c_bands:
     init_us_2    :      0.48s CPU      0.50s WALL (     106 calls)
     cegterg      :    152.51s CPU    154.74s WALL (     185 calls)

     Called by sum_band:

     Called by *egterg:
     h_psi        :     93.76s CPU     95.23s WALL (    2543 calls)
     s_psi        :     12.92s CPU     13.04s WALL (    2543 calls)
     g_psi        :      0.84s CPU      0.91s WALL (    2252 calls)
     cdiaghg      :      6.28s CPU      6.34s WALL (    2358 calls)
     cegterg:over :     18.46s CPU     18.75s WALL (    2252 calls)
     cegterg:upda :     12.19s CPU     12.29s WALL (    2252 calls)
     cegterg:last :     13.12s CPU     13.36s WALL (     622 calls)

     Called by h_psi:
     h_psi:vloc   :     68.36s CPU     69.48s WALL (    2543 calls)
     h_psi:vnl    :     25.00s CPU     25.31s WALL (    2543 calls)
     add_vuspsi   :     12.37s CPU     12.60s WALL (    2543 calls)

     General routines
     calbec       :     12.61s CPU     12.69s WALL (    2543 calls)
     fft          :      0.05s CPU      0.06s WALL (      12 calls)
     ffts         :      0.00s CPU      0.00s WALL (       1 calls)
     fftw         :     54.58s CPU     55.25s WALL (   78050 calls)
     interpolate  :      0.01s CPU      0.01s WALL (       1 calls)
     davcio       :      0.05s CPU      0.12s WALL (     106 calls)

     Parallel routines
     fft_scatter  :      3.22s CPU      3.30s WALL (   78063 calls)

     PWSCF        :  2m57.51s CPU     3m 0.80s WALL


   This run was terminated on:  18: 0:35  23Nov2013            

=------------------------------------------------------------------------------=
   JOB DONE.
=------------------------------------------------------------------------------=
