
     Program PWSCF v.6.5 starts on 26Jul2020 at 15:14:50 

     This program is part of the open-source Quantum ESPRESSO suite
     for quantum simulation of materials; please cite
         "P. Giannozzi et al., J. Phys.:Condens. Matter 21 395502 (2009);
         "P. Giannozzi et al., J. Phys.:Condens. Matter 29 465901 (2017);
          URL http://www.quantum-espresso.org", 
     in publications or presentations arising from this work. More details at
     http://www.quantum-espresso.org/quote

     Serial multi-threaded version, running on    2 processor cores
     Fft bands division:     nmany     =       1
     Reading input from graphene.scf

     Current dimensions of program PWSCF are:
     Max number of different atomic species (ntypx) = 10
     Max number of k-points (npk) =  40000
     Max angular momentum in pseudopotentials (lmaxx) =  3
     file C.pbe-mt_fhi.UPF: wavefunction(s)  4f renormalized

     G-vector sticks info
     --------------------
     sticks:   dense  smooth     PW     G-vecs:    dense   smooth      PW
     Sum         241     241     85                18211    18211    3401



     bravais-lattice index     =            4
     lattice parameter (alat)  =       4.6478  a.u.
     unit-cell volume          =     530.2940 (a.u.)^3
     number of atoms/cell      =            2
     number of atomic types    =            1
     number of electrons       =         8.00
     number of Kohn-Sham states=           16
     kinetic-energy cutoff     =      40.0000  Ry
     charge density cutoff     =     160.0000  Ry
     convergence threshold     =      1.0E-08
     mixing beta               =       0.7000
     number of iterations used =            8  plain     mixing
     Exchange-correlation= PBE
                           (   1   4   3   4   0   0   0)

     celldm(1)=   4.647806  celldm(2)=   0.000000  celldm(3)=   6.098768
     celldm(4)=   0.000000  celldm(5)=   0.000000  celldm(6)=   0.000000

     crystal axes: (cart. coord. in units of alat)
               a(1) = (   1.000000   0.000000   0.000000 )  
               a(2) = (  -0.500000   0.866025   0.000000 )  
               a(3) = (   0.000000   0.000000   6.098768 )  

     reciprocal axes: (cart. coord. in units 2 pi/alat)
               b(1) = (  1.000000  0.577350 -0.000000 )  
               b(2) = (  0.000000  1.154701  0.000000 )  
               b(3) = (  0.000000 -0.000000  0.163968 )  


     PseudoPot. # 1 for C  read from file:
     ../../ppt/C.pbe-mt_fhi.UPF
     MD5 check sum: 058ca341f9d6d5327d9962fd88a91b65
     Pseudo is Norm-conserving, Zval =  4.0
     Generated using FHI98PP, converted with fhi2upf.x v.5.0.2
     Using radial grid of  461 points,  3 beta functions with: 
                l(1) =   0
                l(2) =   1
                l(3) =   3

     atomic species   valence    mass     pseudopotential
        C              4.00    12.01078     C ( 1.00)

     24 Sym. Ops., with inversion, found



   Cartesian axes

     site n.     atom                  positions (alat units)
         1           C   tau(   1) = (   0.0000000   0.5773503   0.0000000  )
         2           C   tau(   2) = (   0.5000000   0.2886751   0.0000000  )

     number of k points=    27  Gaussian smearing, width (Ry)=  0.0001
                       cart. coord. in units 2pi/alat
        k(    1) = (   0.0000000   0.0000000   0.0000000), wk =   0.0088889
        k(    2) = (   0.0000000   0.0769800   0.0000000), wk =   0.0533333
        k(    3) = (   0.0000000   0.1539601   0.0000000), wk =   0.0533333
        k(    4) = (   0.0000000   0.2309401   0.0000000), wk =   0.0533333
        k(    5) = (   0.0000000   0.3079201   0.0000000), wk =   0.0533333
        k(    6) = (   0.0000000   0.3849002   0.0000000), wk =   0.0533333
        k(    7) = (   0.0000000   0.4618802   0.0000000), wk =   0.0533333
        k(    8) = (   0.0000000   0.5388603   0.0000000), wk =   0.0533333
        k(    9) = (   0.0666667   0.1154701   0.0000000), wk =   0.0533333
        k(   10) = (   0.0666667   0.1924501   0.0000000), wk =   0.1066667
        k(   11) = (   0.0666667   0.2694301   0.0000000), wk =   0.1066667
        k(   12) = (   0.0666667   0.3464102   0.0000000), wk =   0.1066667
        k(   13) = (   0.0666667   0.4233902   0.0000000), wk =   0.1066667
        k(   14) = (   0.0666667   0.5003702   0.0000000), wk =   0.1066667
        k(   15) = (   0.0666667   0.5773503   0.0000000), wk =   0.0533333
        k(   16) = (   0.1333333   0.2309401   0.0000000), wk =   0.0533333
        k(   17) = (   0.1333333   0.3079201   0.0000000), wk =   0.1066667
        k(   18) = (   0.1333333   0.3849002   0.0000000), wk =   0.1066667
        k(   19) = (   0.1333333   0.4618802   0.0000000), wk =   0.1066667
        k(   20) = (   0.1333333   0.5388603   0.0000000), wk =   0.1066667
        k(   21) = (   0.2000000   0.3464102   0.0000000), wk =   0.0533333
        k(   22) = (   0.2000000   0.4233902   0.0000000), wk =   0.1066667
        k(   23) = (   0.2000000   0.5003702   0.0000000), wk =   0.1066667
        k(   24) = (   0.2000000   0.5773503   0.0000000), wk =   0.0533333
        k(   25) = (   0.2666667   0.4618802   0.0000000), wk =   0.0533333
        k(   26) = (   0.2666667   0.5388603   0.0000000), wk =   0.1066667
        k(   27) = (   0.3333333   0.5773503   0.0000000), wk =   0.0177778

     Dense  grid:    18211 G-vectors     FFT dimensions: (  20,  20, 120)

     Estimated max dynamical RAM per process >      29.78 MB

     Initial potential from superposition of free atoms

     starting charge    7.99992, renormalised to    8.00000

     negative rho (up, down):  1.462E-04 0.000E+00
     Starting wfcs are   32 randomized atomic wfcs

     total cpu time spent up to now is        1.2 secs

     Self-consistent Calculation

     iteration #  1     ecut=    40.00 Ry     beta= 0.70
     Davidson diagonalization with overlap
     ethr =  1.00E-02,  avg # of iterations =  6.7

     negative rho (up, down):  3.591E-05 0.000E+00

     total cpu time spent up to now is        3.5 secs

     total energy              =     -22.76717583 Ry
     estimated scf accuracy    <       0.19930378 Ry

     iteration #  2     ecut=    40.00 Ry     beta= 0.70
     Davidson diagonalization with overlap
     ethr =  2.49E-03,  avg # of iterations =  2.6

     negative rho (up, down):  6.067E-06 0.000E+00

     total cpu time spent up to now is        4.7 secs

     total energy              =     -22.79645866 Ry
     estimated scf accuracy    <       0.00239033 Ry

     iteration #  3     ecut=    40.00 Ry     beta= 0.70
     Davidson diagonalization with overlap
     ethr =  2.99E-05,  avg # of iterations =  5.4

     total cpu time spent up to now is        6.2 secs

     total energy              =     -22.79669800 Ry
     estimated scf accuracy    <       0.00018784 Ry

     iteration #  4     ecut=    40.00 Ry     beta= 0.70
     Davidson diagonalization with overlap
     ethr =  2.35E-06,  avg # of iterations =  3.3

     total cpu time spent up to now is        7.4 secs

     total energy              =     -22.79670406 Ry
     estimated scf accuracy    <       0.00000027 Ry

     iteration #  5     ecut=    40.00 Ry     beta= 0.70
     Davidson diagonalization with overlap
     ethr =  3.40E-09,  avg # of iterations =  2.7

     total cpu time spent up to now is        8.6 secs

     total energy              =     -22.79670436 Ry
     estimated scf accuracy    <       0.00000002 Ry

     iteration #  6     ecut=    40.00 Ry     beta= 0.70
     Davidson diagonalization with overlap
     ethr =  2.65E-10,  avg # of iterations =  2.0

     total cpu time spent up to now is        9.8 secs

     End of self-consistent calculation

          k = 0.0000 0.0000 0.0000 (  2289 PWs)   bands (ev):

   -21.2884  -9.3685  -4.7940  -4.7940   1.5314   2.4269   2.8866   4.7705
     5.6026   6.6276   6.6276   8.7196   9.8199   9.8249  10.8255  14.0437

          k = 0.0000 0.0770 0.0000 (  2268 PWs)   bands (ev):

   -21.1826  -9.2417  -5.2098  -5.0119   1.6747   2.5716   3.0325   4.9143
     5.7425   6.6877   7.0847   8.8592   9.4525   9.9699  11.0164  14.1729

          k = 0.0000 0.1540 0.0000 (  2276 PWs)   bands (ev):

   -20.8660  -8.8681  -6.3346  -5.5767   2.1048   3.0049   3.4703   5.3440
     6.1560   6.7278   8.3379   8.4203   9.2774  10.4004  11.6363  14.5497

          k = 0.0000 0.2309 0.0000 (  2266 PWs)   bands (ev):

   -20.3410  -8.2483  -7.8730  -6.2848   2.8212   3.7244   4.1998   6.0500
     6.5160   6.9333   6.9502   9.9678  10.1551  11.1093  12.6418  15.1389

          k = 0.0000 0.3079 0.0000 (  2272 PWs)   bands (ev):

   -19.6119  -9.6019  -7.4017  -6.9715   3.8216   4.6714   5.1852   5.2190
     6.3108   7.0753   7.9176  10.9183  12.0936  12.3172  13.7427  15.7882

          k = 0.0000 0.3849 0.0000 (  2262 PWs)   bands (ev):

   -18.6865 -11.3610  -7.5453  -6.3594   3.2301   5.0971   6.0508   6.0538
     6.5500   8.3488   9.1978  12.0924  13.3445  14.1625  14.6144  15.6041

          k = 0.0000 0.4619 0.0000 (  2268 PWs)   bands (ev):

   -17.5811 -13.0651  -7.9474  -5.2101   1.4727   5.8331   6.6916   7.6141
     8.1441   9.8879  10.7580  12.7082  13.1803  14.0324  14.6197  14.8612

          k = 0.0000 0.5389 0.0000 (  2258 PWs)   bands (ev):

   -16.3712 -14.5793  -8.1569  -4.2485   0.1877   5.7402   8.5044   9.4366
    10.0326  10.5664  11.3861  11.7783  12.2046  12.5840  13.6244  14.6141

          k = 0.0667 0.1155 0.0000 (  2283 PWs)   bands (ev):

   -20.9714  -8.9925  -5.9332  -5.4607   1.9615   2.8606   3.3244   5.2010
     6.0226   6.8717   7.7625   8.7536   9.1366  10.2582  11.4561  14.4245

          k = 0.0667 0.1925 0.0000 (  2281 PWs)   bands (ev):

   -20.5506  -8.4955  -7.1763  -6.1865   2.5351   3.4375   3.9082   5.7726
     6.5696   7.0415   7.5128   8.9442   9.6879  10.8294  12.4392  14.8990

          k = 0.0667 0.2694 0.0000 (  2272 PWs)   bands (ev):

   -19.9236  -8.7492  -7.7604  -6.9431   3.3942   4.2952   4.7836   5.8956
     6.6448   6.8483   7.5072  10.5025  10.6025  11.6797  13.8069  15.4816

          k = 0.0667 0.3464 0.0000 (  2262 PWs)   bands (ev):

   -19.0962 -10.4625  -7.6017  -6.8112   4.0749   4.5355   5.4757   5.9463
     6.6438   7.7730   8.6298  11.5492  12.4111  12.8181  15.1242  15.6271

          k = 0.0667 0.4234 0.0000 (  2271 PWs)   bands (ev):

   -18.0797 -12.1813  -8.1065  -5.6995   2.2767   5.9370   6.4297   6.8923
     7.4181   9.1734  10.0494  12.6956  13.3286  14.1848  14.6990  15.4394

          k = 0.0667 0.5004 0.0000 (  2263 PWs)   bands (ev):

   -16.9036 -13.8014  -8.4161  -4.5773   0.7042   6.2419   7.6680   8.5785
     9.1617  10.7907  11.6715  11.7780  12.5167  13.4838  14.0087  15.1413

          k = 0.0667 0.5774 0.0000 (  2274 PWs)   bands (ev):

   -15.9353 -14.9207  -8.5256  -3.9876  -0.0470   6.1922   9.5267   9.6839
    10.3150  10.6590  11.1800  11.2053  12.3875  13.0034  13.6252  13.7091

          k = 0.1333 0.2309 0.0000 (  2283 PWs)   bands (ev):

   -20.0279  -8.2696  -7.8820  -7.1481   3.2519   4.1563   4.6384   6.2019
     6.4840   7.2726   7.7404   9.3311  10.3563  11.5391  13.9333  15.3374

          k = 0.1333 0.3079 0.0000 (  2269 PWs)   bands (ev):

   -19.3025  -9.6577  -8.0492  -7.0417   4.2529   4.6271   5.1662   5.6599
     7.4713   7.8723   8.3814  10.3998  11.2442  12.5235  15.2718  15.6319

          k = 0.1333 0.3849 0.0000 (  2274 PWs)   bands (ev):

   -18.3834 -11.2480  -8.7225  -6.0068   2.9469   5.5335   6.4387   6.9692
     7.7612   8.7170   9.6254  11.9335  12.1835  13.7743  14.5885  16.2389

          k = 0.1333 0.4619 0.0000 (  2271 PWs)   bands (ev):

   -17.2876 -12.8591  -9.1672  -4.8572   1.3081   7.0731   7.5878   7.9659
     8.5812  10.1553  11.1716  12.5147  12.5371  14.4426  14.7422  15.2339

          k = 0.1333 0.5389 0.0000 (  2260 PWs)   bands (ev):

   -16.0931 -14.3287  -9.3870  -3.8735   0.0615   7.4577   8.9068   9.6296
    10.4618  10.9016  11.1954  12.2010  12.6133  12.9704  13.4616  14.7900

          k = 0.2000 0.3464 0.0000 (  2271 PWs)   bands (ev):

   -18.4852 -10.6687  -9.2183  -6.1121   3.2243   5.3930   6.2794   6.8270
     8.5565   9.1043   9.5504  10.3371  11.9764  13.6328  14.3933  17.1351

          k = 0.2000 0.4234 0.0000 (  2268 PWs)   bands (ev):

   -17.4845 -11.9509 -10.0370  -5.0130   1.7367   6.8063   7.6347   8.2815
     9.3759   9.7923  10.8848  11.4827  12.0781  14.6135  14.9771  15.9290

          k = 0.2000 0.5004 0.0000 (  2254 PWs)   bands (ev):

   -16.3338 -13.3768 -10.4615  -3.8713   0.3395   8.4677   9.0352   9.2408
    10.0300  10.7509  11.9094  12.4179  12.5684  14.1141  14.2875  15.0700

          k = 0.2000 0.5774 0.0000 (  2248 PWs)   bands (ev):

   -15.3945 -14.4250 -10.5916  -3.2202  -0.4024   9.1642   9.6628  10.2344
    10.4590  11.5295  12.0143  12.0576  12.4266  13.8719  14.1036  14.4258

          k = 0.2667 0.4619 0.0000 (  2245 PWs)   bands (ev):

   -16.4224 -12.7272 -11.1601  -3.8826   0.4841   8.3337   8.7974   9.8747
    10.5270  11.0223  11.1544  12.3302  12.4397  15.3952  15.5389  15.6806

          k = 0.2667 0.5389 0.0000 (  2243 PWs)   bands (ev):

   -15.2782 -13.7772 -11.6991  -2.7994  -0.6590   9.1378  10.0367  10.9154
    11.5576  11.6628  11.7861  13.4949  13.6717  14.0414  14.1157  14.8019

          k = 0.3333 0.5774 0.0000 (  2259 PWs)   bands (ev):

   -14.3204 -14.3204 -12.3230  -1.7106  -1.7106   8.9413  11.2302  11.2302
    11.8306  13.2649  13.2649  13.5021  13.5021  13.7089  14.1016  14.4857

     the Fermi energy is    -1.7106 ev

!    total energy              =     -22.79670436 Ry
     estimated scf accuracy    <          5.6E-10 Ry
     smearing contrib. (-TS)   =      -0.00000100 Ry
     internal energy E=F+TS    =     -22.79670336 Ry

     The total energy is F=E-TS. E is the sum of the following terms:
     one-electron contribution =    -158.13279522 Ry
     hartree contribution      =      80.43585239 Ry
     xc contribution           =      -7.02051215 Ry
     ewald contribution        =      61.92075162 Ry

     convergence has been achieved in   6 iterations

     Writing output data file ../tmp/grp.save/

     init_run     :      2.05s CPU      1.09s WALL (       1 calls)
     electrons    :     17.13s CPU      8.62s WALL (       1 calls)

     Called by init_run:
     wfcinit      :      1.95s CPU      1.00s WALL (       1 calls)
     potinit      :      0.04s CPU      0.02s WALL (       1 calls)
     hinit0       :      0.06s CPU      0.05s WALL (       1 calls)

     Called by electrons:
     c_bands      :     14.51s CPU      7.31s WALL (       6 calls)
     sum_band     :      2.46s CPU      1.23s WALL (       6 calls)
     v_of_rho     :      0.15s CPU      0.08s WALL (       7 calls)
     mix_rho      :      0.02s CPU      0.01s WALL (       6 calls)

     Called by c_bands:
     init_us_2    :      0.31s CPU      0.16s WALL (     351 calls)
     cegterg      :     14.07s CPU      7.08s WALL (     162 calls)

     Called by *egterg:
     cdiaghg      :      0.32s CPU      0.19s WALL (     775 calls)
     h_psi        :     14.23s CPU      7.15s WALL (     802 calls)
     g_psi        :      0.08s CPU      0.04s WALL (     613 calls)

     Called by h_psi:
     h_psi:calbec :      0.22s CPU      0.12s WALL (     802 calls)
     vloc_psi     :     13.74s CPU      6.90s WALL (     802 calls)
     add_vuspsi   :      0.22s CPU      0.10s WALL (     802 calls)

     General routines
     calbec       :      0.22s CPU      0.12s WALL (     802 calls)
     fft          :      0.07s CPU      0.05s WALL (      69 calls)
     ffts         :      0.00s CPU      0.00s WALL (       6 calls)
     fftw         :     14.79s CPU      7.40s WALL (   18500 calls)


     PWSCF        :     19.28s CPU      9.83s WALL


   This run was terminated on:  15:14:59  26Jul2020            

=------------------------------------------------------------------------------=
   JOB DONE.
=------------------------------------------------------------------------------=
