
     Program PWSCF v.6.5 starts on 26Jul2020 at 15:14:59 

     This program is part of the open-source Quantum ESPRESSO suite
     for quantum simulation of materials; please cite
         "P. Giannozzi et al., J. Phys.:Condens. Matter 21 395502 (2009);
         "P. Giannozzi et al., J. Phys.:Condens. Matter 29 465901 (2017);
          URL http://www.quantum-espresso.org", 
     in publications or presentations arising from this work. More details at
     http://www.quantum-espresso.org/quote

     Serial multi-threaded version, running on    2 processor cores
     Fft bands division:     nmany     =       1
     Reading input from graphene.bands

     Current dimensions of program PWSCF are:
     Max number of different atomic species (ntypx) = 10
     Max number of k-points (npk) =  40000
     Max angular momentum in pseudopotentials (lmaxx) =  3

     Atomic positions and unit cell read from directory:
     ../tmp/grp.save/
     Atomic positions from file used, from input discarded

     file C.pbe-mt_fhi.UPF: wavefunction(s)  4f renormalized

     G-vector sticks info
     --------------------
     sticks:   dense  smooth     PW     G-vecs:    dense   smooth      PW
     Sum         241     241     85                18211    18211    3401



     bravais-lattice index     =            4
     lattice parameter (alat)  =       4.6478  a.u.
     unit-cell volume          =     530.2940 (a.u.)^3
     number of atoms/cell      =            2
     number of atomic types    =            1
     number of electrons       =         8.00
     number of Kohn-Sham states=           16
     kinetic-energy cutoff     =      40.0000  Ry
     charge density cutoff     =     160.0000  Ry
     Exchange-correlation= PBE
                           (   1   4   3   4   0   0   0)

     celldm(1)=   4.647806  celldm(2)=   0.000000  celldm(3)=   6.098768
     celldm(4)=   0.000000  celldm(5)=   0.000000  celldm(6)=   0.000000

     crystal axes: (cart. coord. in units of alat)
               a(1) = (   1.000000   0.000000   0.000000 )  
               a(2) = (  -0.500000   0.866025   0.000000 )  
               a(3) = (   0.000000   0.000000   6.098768 )  

     reciprocal axes: (cart. coord. in units 2 pi/alat)
               b(1) = (  1.000000  0.577350 -0.000000 )  
               b(2) = (  0.000000  1.154701  0.000000 )  
               b(3) = (  0.000000 -0.000000  0.163968 )  


     PseudoPot. # 1 for C  read from file:
     ../../ppt/C.pbe-mt_fhi.UPF
     MD5 check sum: 058ca341f9d6d5327d9962fd88a91b65
     Pseudo is Norm-conserving, Zval =  4.0
     Generated using FHI98PP, converted with fhi2upf.x v.5.0.2
     Using radial grid of  461 points,  3 beta functions with: 
                l(1) =   0
                l(2) =   1
                l(3) =   3

     atomic species   valence    mass     pseudopotential
        C              4.00    12.01078     C ( 1.00)

     24 Sym. Ops., with inversion, found



   Cartesian axes

     site n.     atom                  positions (alat units)
         1           C   tau(   1) = (   0.0000000   0.5773503   0.0000000  )
         2           C   tau(   2) = (   0.5000000   0.2886751   0.0000000  )

     number of k points=    91  Gaussian smearing, width (Ry)=  0.0001
                       cart. coord. in units 2pi/alat
        k(    1) = (   0.3333333   0.5773503   0.0000000), wk =   0.0219780
        k(    2) = (   0.3240741   0.5613128   0.0000000), wk =   0.0219780
        k(    3) = (   0.3148148   0.5452753   0.0000000), wk =   0.0219780
        k(    4) = (   0.3055556   0.5292377   0.0000000), wk =   0.0219780
        k(    5) = (   0.2962963   0.5132002   0.0000000), wk =   0.0219780
        k(    6) = (   0.2870370   0.4971627   0.0000000), wk =   0.0219780
        k(    7) = (   0.2777778   0.4811252   0.0000000), wk =   0.0219780
        k(    8) = (   0.2685185   0.4650877   0.0000000), wk =   0.0219780
        k(    9) = (   0.2592593   0.4490502   0.0000000), wk =   0.0219780
        k(   10) = (   0.2500000   0.4330127   0.0000000), wk =   0.0219780
        k(   11) = (   0.2407407   0.4169752   0.0000000), wk =   0.0219780
        k(   12) = (   0.2314815   0.4009377   0.0000000), wk =   0.0219780
        k(   13) = (   0.2222222   0.3849002   0.0000000), wk =   0.0219780
        k(   14) = (   0.2129630   0.3688627   0.0000000), wk =   0.0219780
        k(   15) = (   0.2037037   0.3528252   0.0000000), wk =   0.0219780
        k(   16) = (   0.1944444   0.3367877   0.0000000), wk =   0.0219780
        k(   17) = (   0.1851852   0.3207501   0.0000000), wk =   0.0219780
        k(   18) = (   0.1759259   0.3047126   0.0000000), wk =   0.0219780
        k(   19) = (   0.1666667   0.2886751   0.0000000), wk =   0.0219780
        k(   20) = (   0.1574074   0.2726376   0.0000000), wk =   0.0219780
        k(   21) = (   0.1481481   0.2566001   0.0000000), wk =   0.0219780
        k(   22) = (   0.1388889   0.2405626   0.0000000), wk =   0.0219780
        k(   23) = (   0.1296296   0.2245251   0.0000000), wk =   0.0219780
        k(   24) = (   0.1203704   0.2084876   0.0000000), wk =   0.0219780
        k(   25) = (   0.1111111   0.1924501   0.0000000), wk =   0.0219780
        k(   26) = (   0.1018519   0.1764126   0.0000000), wk =   0.0219780
        k(   27) = (   0.0925926   0.1603751   0.0000000), wk =   0.0219780
        k(   28) = (   0.0833333   0.1443376   0.0000000), wk =   0.0219780
        k(   29) = (   0.0740741   0.1283001   0.0000000), wk =   0.0219780
        k(   30) = (   0.0648148   0.1122626   0.0000000), wk =   0.0219780
        k(   31) = (   0.0555556   0.0962250   0.0000000), wk =   0.0219780
        k(   32) = (   0.0462963   0.0801875   0.0000000), wk =   0.0219780
        k(   33) = (   0.0370370   0.0641500   0.0000000), wk =   0.0219780
        k(   34) = (   0.0277778   0.0481125   0.0000000), wk =   0.0219780
        k(   35) = (   0.0185185   0.0320750   0.0000000), wk =   0.0219780
        k(   36) = (   0.0092593   0.0160375   0.0000000), wk =   0.0219780
        k(   37) = (   0.0000000   0.0000000   0.0000000), wk =   0.0219780
        k(   38) = (   0.0156250   0.0090211   0.0000000), wk =   0.0219780
        k(   39) = (   0.0312500   0.0180422   0.0000000), wk =   0.0219780
        k(   40) = (   0.0468750   0.0270633   0.0000000), wk =   0.0219780
        k(   41) = (   0.0625000   0.0360844   0.0000000), wk =   0.0219780
        k(   42) = (   0.0781250   0.0451055   0.0000000), wk =   0.0219780
        k(   43) = (   0.0937500   0.0541266   0.0000000), wk =   0.0219780
        k(   44) = (   0.1093750   0.0631477   0.0000000), wk =   0.0219780
        k(   45) = (   0.1250000   0.0721688   0.0000000), wk =   0.0219780
        k(   46) = (   0.1406250   0.0811899   0.0000000), wk =   0.0219780
        k(   47) = (   0.1562500   0.0902110   0.0000000), wk =   0.0219780
        k(   48) = (   0.1718750   0.0992321   0.0000000), wk =   0.0219780
        k(   49) = (   0.1875000   0.1082532   0.0000000), wk =   0.0219780
        k(   50) = (   0.2031250   0.1172743   0.0000000), wk =   0.0219780
        k(   51) = (   0.2187500   0.1262954   0.0000000), wk =   0.0219780
        k(   52) = (   0.2343750   0.1353165   0.0000000), wk =   0.0219780
        k(   53) = (   0.2500000   0.1443376   0.0000000), wk =   0.0219780
        k(   54) = (   0.2656250   0.1533587   0.0000000), wk =   0.0219780
        k(   55) = (   0.2812500   0.1623798   0.0000000), wk =   0.0219780
        k(   56) = (   0.2968750   0.1714009   0.0000000), wk =   0.0219780
        k(   57) = (   0.3125000   0.1804220   0.0000000), wk =   0.0219780
        k(   58) = (   0.3281250   0.1894431   0.0000000), wk =   0.0219780
        k(   59) = (   0.3437500   0.1984642   0.0000000), wk =   0.0219780
        k(   60) = (   0.3593750   0.2074853   0.0000000), wk =   0.0219780
        k(   61) = (   0.3750000   0.2165064   0.0000000), wk =   0.0219780
        k(   62) = (   0.3906250   0.2255274   0.0000000), wk =   0.0219780
        k(   63) = (   0.4062500   0.2345485   0.0000000), wk =   0.0219780
        k(   64) = (   0.4218750   0.2435696   0.0000000), wk =   0.0219780
        k(   65) = (   0.4375000   0.2525907   0.0000000), wk =   0.0219780
        k(   66) = (   0.4531250   0.2616118   0.0000000), wk =   0.0219780
        k(   67) = (   0.4687500   0.2706329   0.0000000), wk =   0.0219780
        k(   68) = (   0.4843750   0.2796540   0.0000000), wk =   0.0219780
        k(   69) = (   0.5000000   0.2886751   0.0000000), wk =   0.0219780
        k(   70) = (   0.4924242   0.3017967   0.0000000), wk =   0.0219780
        k(   71) = (   0.4848485   0.3149183   0.0000000), wk =   0.0219780
        k(   72) = (   0.4772727   0.3280399   0.0000000), wk =   0.0219780
        k(   73) = (   0.4696970   0.3411615   0.0000000), wk =   0.0219780
        k(   74) = (   0.4621212   0.3542831   0.0000000), wk =   0.0219780
        k(   75) = (   0.4545455   0.3674047   0.0000000), wk =   0.0219780
        k(   76) = (   0.4469697   0.3805263   0.0000000), wk =   0.0219780
        k(   77) = (   0.4393939   0.3936479   0.0000000), wk =   0.0219780
        k(   78) = (   0.4318182   0.4067695   0.0000000), wk =   0.0219780
        k(   79) = (   0.4242424   0.4198911   0.0000000), wk =   0.0219780
        k(   80) = (   0.4166667   0.4330127   0.0000000), wk =   0.0219780
        k(   81) = (   0.4090909   0.4461343   0.0000000), wk =   0.0219780
        k(   82) = (   0.4015152   0.4592559   0.0000000), wk =   0.0219780
        k(   83) = (   0.3939394   0.4723775   0.0000000), wk =   0.0219780
        k(   84) = (   0.3863636   0.4854991   0.0000000), wk =   0.0219780
        k(   85) = (   0.3787879   0.4986207   0.0000000), wk =   0.0219780
        k(   86) = (   0.3712121   0.5117423   0.0000000), wk =   0.0219780
        k(   87) = (   0.3636364   0.5248639   0.0000000), wk =   0.0219780
        k(   88) = (   0.3560606   0.5379855   0.0000000), wk =   0.0219780
        k(   89) = (   0.3484848   0.5511071   0.0000000), wk =   0.0219780
        k(   90) = (   0.3409091   0.5642287   0.0000000), wk =   0.0219780
        k(   91) = (   0.3333333   0.5773503   0.0000000), wk =   0.0219780

     Dense  grid:    18211 G-vectors     FFT dimensions: (  20,  20, 120)

     Estimated max dynamical RAM per process >       9.76 MB

     The potential is recalculated from file :
     ../tmp/grp.save/charge-density

     Starting wfcs are   32 randomized atomic wfcs

     Band Structure Calculation
     Davidson diagonalization with overlap

     ethr =  1.25E-10,  avg # of iterations = 35.0

     total cpu time spent up to now is       39.8 secs

     End of band structure calculation

          k = 0.3333 0.5774 0.0000 (  2259 PWs)   bands (ev):

   -14.3203 -14.3203 -12.3228  -1.7106  -1.7106   8.9413  11.2303  11.2303
    11.8305  13.2648  13.2648  13.5021  13.5021  13.7088  14.1015  14.4857

          k = 0.3241 0.5613 0.0000 (  2241 PWs)   bands (ev):

   -14.5368 -14.1286 -12.2805  -1.9776  -1.4447   8.9541  11.0427  11.3111
    11.8217  12.8627  13.0905  13.5735  13.7191  13.8452  14.1875  14.4639

          k = 0.3148 0.5453 0.0000 (  2237 PWs)   bands (ev):

   -14.8029 -13.9274 -12.1777  -2.2608  -1.1655   8.9878  10.6993  11.3607
    11.7953  12.3864  12.5808  13.8985  13.9389  14.0052  14.2229  14.5195

          k = 0.3056 0.5292 0.0000 (  2245 PWs)   bands (ev):

   -15.0975 -13.7173 -12.0327  -2.5575  -0.8751   9.0323  10.2772  11.3746
    11.7126  11.9128  12.0726  13.9644  14.0766  14.1704  14.2396  14.4884

          k = 0.2963 0.5132 0.0000 (  2239 PWs)   bands (ev):

   -15.4075 -13.4965 -11.8552  -2.8639  -0.5702   9.0707   9.8216  11.3604
    11.4392  11.4703  11.7085  13.5574  13.8349  14.4232  14.5970  14.6014

          k = 0.2870 0.4972 0.0000 (  2251 PWs)   bands (ev):

   -15.7249 -13.2674 -11.6564  -3.1782  -0.2551   9.0761   9.3541  10.9578
    11.0832  11.3153  11.5114  13.1331  13.4263  14.7001  14.8462  14.9701

          k = 0.2778 0.4811 0.0000 (  2253 PWs)   bands (ev):

   -16.0432 -13.0279 -11.4401  -3.4973   0.0735   8.8866   9.0105  10.4597
    10.7774  11.2513  11.3029  12.7342  12.9809  15.0024  15.1429  15.3592

          k = 0.2685 0.4651 0.0000 (  2249 PWs)   bands (ev):

   -16.3591 -12.7786 -11.2085  -3.8185   0.4126   8.4250   8.8433   9.9709
    10.5617  11.0712  11.1714  12.3897  12.5296  15.3277  15.4715  15.7246

          k = 0.2593 0.4491 0.0000 (  2255 PWs)   bands (ev):

   -16.6715 -12.5212 -10.9646  -4.1415   0.7649   7.9725   8.5785   9.4955
    10.3972  10.8213  11.0769  12.0831  12.1333  15.4524  15.6717  15.7811

          k = 0.2500 0.4330 0.0000 (  2261 PWs)   bands (ev):

   -16.9771 -12.2544 -10.7114  -4.4627   1.1236   7.5317   8.2497   9.0351
    10.2148  10.5579  10.9741  11.6466  11.9955  15.1294  15.6223  16.0287

          k = 0.2407 0.4170 0.0000 (  2269 PWs)   bands (ev):

   -17.2759 -11.9801 -10.4501  -4.7799   1.4933   7.1037   7.8890   8.5903
     9.9744  10.2885  10.8627  11.2228  11.9739  14.8188  15.2509  16.3891

          k = 0.2315 0.4009 0.0000 (  2265 PWs)   bands (ev):

   -17.5665 -11.6955 -10.1782  -5.0937   1.8750   6.6896   7.5165   8.1616
     9.6819  10.0180  10.7498  10.8136  12.0243  14.5531  14.8697  16.7358

          k = 0.2222 0.3849 0.0000 (  2265 PWs)   bands (ev):

   -17.8482 -11.4031  -9.9017  -5.4013   2.2649   6.2900   7.1437   7.7493
     9.3595   9.7468  10.4204  10.6312  12.0850  14.3649  14.4934  17.0337

          k = 0.2130 0.3689 0.0000 (  2275 PWs)   bands (ev):

   -18.1206 -11.1022  -9.6198  -5.7050   2.6596   5.9054   6.7764   7.3533
     9.0248   9.4763  10.0444  10.5093  12.0974  14.1264  14.2879  17.2157

          k = 0.2037 0.3528 0.0000 (  2275 PWs)   bands (ev):

   -18.3830 -10.7948  -9.3339  -5.9975   3.0620   5.5362   6.4191   6.9740
     8.6894   9.2101   9.6874  10.3864  12.0277  13.7712  14.3396  17.2010

          k = 0.1944 0.3368 0.0000 (  2275 PWs)   bands (ev):

   -18.6351 -10.4789  -9.0442  -6.2816   3.4671   5.1826   6.0735   6.6113
     8.3592   8.9463   9.3513  10.2623  11.8788  13.4291  14.5018  16.9797

          k = 0.1852 0.3208 0.0000 (  2281 PWs)   bands (ev):

   -18.8771 -10.1582  -8.7542  -6.5556   3.8785   4.8449   5.7411   6.2653
     8.0382   8.6838   9.0384  10.1341  11.6766  13.1007  14.7326  16.6153

          k = 0.1759 0.3047 0.0000 (  2269 PWs)   bands (ev):

   -19.1079  -9.8266  -8.4618  -6.8186   4.2941   4.5231   5.4230   5.9361
     7.7288   8.4223   8.7511  10.0040  11.4461  12.7870  14.9856  16.1804

          k = 0.1667 0.2887 0.0000 (  2273 PWs)   bands (ev):

   -19.3283  -9.4952  -8.1705  -7.0709   4.2174   4.7107   5.1197   5.6237
     7.4322   8.1616   8.4909   9.8698  11.2039  12.4880  15.2123  15.7001

          k = 0.1574 0.2726 0.0000 (  2275 PWs)   bands (ev):

   -19.5374  -9.1583  -7.8807  -7.3121   3.9279   4.8316   5.1277   5.3281
     7.1495   7.9037   8.2556   9.7310  10.9600  12.2042  15.2063  15.3661

          k = 0.1481 0.2566 0.0000 (  2283 PWs)   bands (ev):

   -19.7352  -8.8183  -7.5974  -7.5413   3.6548   4.5591   5.0493   5.5449
     6.8814   7.6524   8.0416   9.5827  10.7208  11.9359  14.7092  15.4212

          k = 0.1389 0.2406 0.0000 (  2287 PWs)   bands (ev):

   -19.9215  -8.4771  -7.7580  -7.3154   3.3980   4.3025   4.7874   5.9572
     6.6284   7.4113   7.8480   9.4286  10.4898  11.6832  14.2179  15.3876

          k = 0.1296 0.2245 0.0000 (  2271 PWs)   bands (ev):

   -20.0962  -8.1315  -7.9610  -7.0369   3.1576   4.0620   4.5424   6.3665
     6.3910   7.1828   7.6736   9.2662  10.2698  11.4462  13.7496  15.2956

          k = 0.1204 0.2085 0.0000 (  2277 PWs)   bands (ev):

   -20.2594  -8.1531  -7.7891  -6.7690   2.9337   3.8375   4.3142   6.1691
     6.7617   6.9676   7.5136   9.0881  10.0616  11.2250  13.3026  15.1716

          k = 0.1111 0.1925 0.0000 (  2281 PWs)   bands (ev):

   -20.4107  -8.3309  -7.4504  -6.5108   2.7263   3.6295   4.1030   5.9632
     6.7671   7.1477   7.3691   8.8947   9.8669  11.0197  12.8856  15.0343

          k = 0.1019 0.1764 0.0000 (  2281 PWs)   bands (ev):

   -20.5502  -8.4952  -7.1142  -6.2637   2.5355   3.4378   3.9086   5.7734
     6.5820   7.2397   7.5202   8.6844   9.6863  10.8304  12.5074  14.8943

          k = 0.0926 0.1604 0.0000 (  2281 PWs)   bands (ev):

   -20.6779  -8.6465  -6.7848  -6.0299   2.3612   3.2626   3.7312   5.5998
     6.4124   7.1240   7.8772   8.4575   9.5202  10.6572  12.1711  14.7578

          k = 0.0833 0.1443 0.0000 (  2285 PWs)   bands (ev):

   -20.7935  -8.7834  -6.4674  -5.8115   2.2035   3.1040   3.5707   5.4425
     6.2587   7.0219   8.2108   8.2164   9.3692  10.5001  11.8771  14.6290

          k = 0.0741 0.1283 0.0000 (  2287 PWs)   bands (ev):

   -20.8971  -8.9053  -6.1633  -5.6088   2.0624   2.9621   3.4270   5.3017
     6.1210   6.9321   7.9645   8.5230   9.2337  10.3592  11.6262  14.5107

          k = 0.0648 0.1123 0.0000 (  2283 PWs)   bands (ev):

   -20.9886  -9.0130  -5.8775  -5.4255   1.9379   2.8368   3.3003   5.1774
     5.9996   6.8577   7.7124   8.8086   9.1138  10.2345  11.4177  14.4040

          k = 0.0556 0.0962 0.0000 (  2281 PWs)   bands (ev):

   -21.0680  -9.1071  -5.6151  -5.2622   1.8300   2.7281   3.1905   5.0695
     5.8942   6.7954   7.4667   9.0095   9.0652  10.1263  11.2464  14.3099

          k = 0.0463 0.0802 0.0000 (  2277 PWs)   bands (ev):

   -21.1352  -9.1870  -5.3769  -5.1203   1.7387   2.6360   3.0976   4.9782
     5.8051   6.7440   7.2366   8.9211   9.2879  10.0344  11.1099  14.2293

          k = 0.0370 0.0642 0.0000 (  2275 PWs)   bands (ev):

   -21.1903  -9.2524  -5.1729  -5.0031   1.6641   2.5607   3.0216   4.9034
     5.7322   6.7018   7.0323   8.8486   9.4776   9.9591  11.0034  14.1628

          k = 0.0278 0.0481 0.0000 (  2275 PWs)   bands (ev):

   -21.2331  -9.3024  -5.0104  -4.9110   1.6060   2.5022   2.9625   4.8453
     5.6754   6.6690   6.8615   8.7923   9.6289   9.9005  10.9236  14.1111

          k = 0.0185 0.0321 0.0000 (  2275 PWs)   bands (ev):

   -21.2637  -9.3384  -4.8905  -4.8445   1.5645   2.4604   2.9203   4.8038
     5.6349   6.6461   6.7351   8.7520   9.7361   9.8585  10.8685  14.0739

          k = 0.0093 0.0160 0.0000 (  2277 PWs)   bands (ev):

   -21.2821  -9.3609  -4.8157  -4.8040   1.5396   2.4352   2.8950   4.7788
     5.6106   6.6330   6.6555   8.7277   9.8011   9.8333  10.8364  14.0512

          k = 0.0000 0.0000 0.0000 (  2289 PWs)   bands (ev):

   -21.2882  -9.3684  -4.7938  -4.7938   1.5313   2.4268   2.8865   4.7704
     5.6025   6.6278   6.6278   8.7195   9.8200   9.8249  10.8256  14.0436

          k = 0.0156 0.0090 0.0000 (  2277 PWs)   bands (ev):

   -21.2824  -9.3612  -4.8145  -4.8031   1.5392   2.4348   2.8945   4.7784
     5.6102   6.6328   6.6540   8.7273   9.8022   9.8329  10.8358  14.0508

          k = 0.0312 0.0180 0.0000 (  2277 PWs)   bands (ev):

   -21.2650  -9.3405  -4.8844  -4.8414   1.5628   2.4586   2.9186   4.8020
     5.6333   6.6437   6.7297   8.7503   9.7405   9.8568  10.8664  14.0721

          k = 0.0469 0.0271 0.0000 (  2273 PWs)   bands (ev):

   -21.2359  -9.3051  -5.0019  -4.9035   1.6022   2.4984   2.9587   4.8416
     5.6717   6.6615   6.8566   8.7887   9.6387   9.8966  10.9182  14.1079

          k = 0.0625 0.0361 0.0000 (  2268 PWs)   bands (ev):

   -21.1952  -9.2568  -5.1600  -4.9857   1.6573   2.5540   3.0148   4.8968
     5.7255   6.6826   7.0310   8.8423   9.4964   9.9523  10.9928  14.1573

          k = 0.0781 0.0451 0.0000 (  2274 PWs)   bands (ev):

   -21.1430  -9.1960  -5.3628  -5.0900   1.7282   2.6254   3.0869   4.9676
     5.7946   6.7021   7.2494   8.9107   9.3156  10.0237  11.0909  14.2201

          k = 0.0938 0.0541 0.0000 (  2278 PWs)   bands (ev):

   -21.0791  -9.1204  -5.5996  -5.2132   1.8148   2.7128   3.1751   5.0543
     5.8788   6.7168   7.5106   8.9926   9.1023  10.1108  11.2136  14.2969

          k = 0.1094 0.0631 0.0000 (  2268 PWs)   bands (ev):

   -21.0038  -9.0308  -5.8659  -5.3459   1.9172   2.8160   3.2793   5.1567
     5.9778   6.7283   7.8121   8.8519   9.0968  10.2133  11.3625  14.3870

          k = 0.1250 0.0722 0.0000 (  2276 PWs)   bands (ev):

   -20.9169  -8.9283  -6.1662  -5.4943   2.0353   2.9349   3.3995   5.2747
     6.0906   6.7303   8.1461   8.5763   9.2103  10.3312  11.5347  14.4898

          k = 0.1406 0.0812 0.0000 (  2272 PWs)   bands (ev):

   -20.8185  -8.8120  -6.4854  -5.6503   2.1692   3.0697   3.5358   5.4083
     6.2155   6.7261   8.2767   8.5134   9.3397  10.4644  11.7314  14.6049

          k = 0.1562 0.0902 0.0000 (  2276 PWs)   bands (ev):

   -20.7087  -8.6818  -6.8303  -5.8159   2.3188   3.2202   3.6881   5.5573
     6.3468   6.7229   7.9492   8.9101   9.4843  10.6128  11.9480  14.7318

          k = 0.1719 0.0992 0.0000 (  2276 PWs)   bands (ev):

   -20.5875  -8.5385  -7.1918  -5.9827   2.4841   3.3864   3.8564   5.7213
     6.4644   6.7403   7.5996   9.3344   9.6437  10.7765  12.1822  14.8692

          k = 0.1875 0.1083 0.0000 (  2276 PWs)   bands (ev):

   -20.4550  -8.3826  -7.5669  -6.1512   2.6651   3.5680   4.0408   5.8994
     6.5200   6.8263   7.2334   9.7817   9.8179  10.9553  12.4316  15.0160

          k = 0.2031 0.1173 0.0000 (  2266 PWs)   bands (ev):

   -20.3112  -8.2135  -7.9511  -6.3183   2.8617   3.7649   4.2411   6.0880
     6.5112   6.8575   6.9860  10.0067  10.2505  11.1493  12.6946  15.1702

          k = 0.2188 0.1263 0.0000 (  2268 PWs)   bands (ev):

   -20.1562  -8.3488  -8.0322  -6.4850   3.0739   3.9766   4.4573   6.2449
     6.4742   6.5128   7.1833  10.2097  10.7377  11.3584  12.9599  15.3291

          k = 0.2344 0.1353 0.0000 (  2270 PWs)   bands (ev):

   -19.9902  -8.7525  -7.8388  -6.6488   3.3017   4.2019   4.6894   5.9999
     6.4252   6.5741   7.4039  10.4268  11.2407  11.5826  13.2254  15.4887

          k = 0.2500 0.1443 0.0000 (  2274 PWs)   bands (ev):

   -19.8129  -9.1603  -7.6346  -6.8089   3.5450   4.4371   4.9374   5.5991
     6.3710   6.8031   7.6432  10.6572  11.7549  11.8218  13.4854  15.6419

          k = 0.2656 0.1534 0.0000 (  2276 PWs)   bands (ev):

   -19.6247  -9.5745  -7.4165  -6.9626   3.8038   4.6596   5.2008   5.2076
     6.3145   7.0577   7.8998  10.9016  12.0761  12.2819  13.7259  15.7799

          k = 0.2812 0.1624 0.0000 (  2268 PWs)   bands (ev):

   -19.4258  -9.9880  -7.1880  -7.1083   4.0778   4.6202   5.0889   5.4792
     6.2581   7.3297   8.1729  11.1584  12.3451  12.8185  13.9393  15.8839

          k = 0.2969 0.1714 0.0000 (  2264 PWs)   bands (ev):

   -19.2162 -10.4007  -7.2481  -6.9500   4.2352   4.3669   5.3274   5.7696
     6.2059   7.6176   8.4620  11.4270  12.6286  13.3583  14.1060  15.9257

          k = 0.3125 0.1804 0.0000 (  2262 PWs)   bands (ev):

   -18.9961 -10.8140  -7.3799  -6.7024   3.8086   4.6707   5.6229   6.0366
     6.1948   7.9210   8.7669  11.7064  12.9265  13.8990  14.1983  15.8698

          k = 0.3281 0.1894 0.0000 (  2260 PWs)   bands (ev):

   -18.7655 -11.2256  -7.5035  -6.4461   3.3756   4.9884   5.9408   6.0664
     6.4411   8.2395   9.0874  11.9949  13.2379  14.1901  14.4362  15.6908

          k = 0.3438 0.1985 0.0000 (  2264 PWs)   bands (ev):

   -18.5249 -11.6347  -7.6189  -6.1832   2.9434   5.3173   6.0281   6.2763
     6.7772   8.5726   9.4234  12.2894  13.5600  14.0615  14.9667  15.3986

          k = 0.3594 0.2075 0.0000 (  2266 PWs)   bands (ev):

   -18.2745 -12.0401  -7.7233  -5.9144   2.5184   5.6438   6.0057   6.6281
     7.1350   8.9202   9.7747  12.5854  13.7580  13.9422  15.0275  15.4848

          k = 0.3750 0.2165 0.0000 (  2270 PWs)   bands (ev):

   -18.0149 -12.4394  -7.8177  -5.6429   2.1028   5.8451   6.1258   6.9953
     7.5100   9.2817  10.1410  12.8708  13.4202  14.2696  14.6150  15.5623

          k = 0.3906 0.2255 0.0000 (  2274 PWs)   bands (ev):

   -17.7462 -12.8336  -7.9016  -5.3717   1.7027   5.8484   6.4630   7.3775
     7.9015   9.6566  10.5222  12.9882  13.1095  14.2142  14.6315  14.9770

          k = 0.4062 0.2345 0.0000 (  2268 PWs)   bands (ev):

   -17.4695 -13.2180  -7.9740  -5.1038   1.3236   5.8220   6.8489   7.7745
     8.3090  10.0443  10.9179  12.5147  13.1613  13.9704  14.3872  15.0112

          k = 0.4219 0.2436 0.0000 (  2274 PWs)   bands (ev):

   -17.1864 -13.5940  -8.0378  -4.8471   0.9689   5.7946   7.2552   8.1856
     8.7325  10.4430  11.3266  12.0191  12.8706  13.8074  14.0223  15.2849

          k = 0.4375 0.2526 0.0000 (  2266 PWs)   bands (ev):

   -16.8983 -13.9563  -8.0889  -4.6077   0.6493   5.7714   7.6776   8.6104
     9.1718  10.8492  11.5022  11.7619  12.4304  13.2372  14.1015  14.9911

          k = 0.4531 0.2616 0.0000 (  2268 PWs)   bands (ev):

   -16.6111 -14.3028  -8.1316  -4.3972   0.3759   5.7523   8.1147   9.0479
     9.6266  11.0010  11.2458  11.9726  12.1931  12.6793  13.9340  14.9578

          k = 0.4688 0.2706 0.0000 (  2258 PWs)   bands (ev):

   -16.3359 -14.6190  -8.1599  -4.2291   0.1635   5.7388   8.5651   9.4970
    10.0956  10.5003  11.3495  11.8065  12.1329  12.6444  13.5713  14.5490

          k = 0.4844 0.2797 0.0000 (  2260 PWs)   bands (ev):

   -16.1052 -14.8761  -8.1784  -4.1179   0.0269   5.7304   9.0267   9.9526
    10.0018  10.5856  10.9245  11.6024  12.1663  13.1058  13.1660  14.0625

          k = 0.5000 0.2887 0.0000 (  2260 PWs)   bands (ev):

   -16.0027 -14.9873  -8.1829  -4.0811  -0.0210   5.7275   9.4336   9.5847
    10.3240  10.5502  11.0742  11.0980  12.4317  12.8949  13.5462  13.6136

          k = 0.4924 0.3018 0.0000 (  2264 PWs)   bands (ev):

   -15.9995 -14.9838  -8.2024  -4.0761  -0.0222   5.7522   9.4383   9.5898
    10.3240  10.5559  11.0797  11.1036  12.4296  12.9005  13.5502  13.6186

          k = 0.4848 0.3149 0.0000 (  2266 PWs)   bands (ev):

   -15.9890 -14.9734  -8.2550  -4.0629  -0.0267   5.8260   9.4528   9.6052
    10.3237  10.5726  11.0961  11.1202  12.4230  12.9172  13.5626  13.6334

          k = 0.4773 0.3280 0.0000 (  2266 PWs)   bands (ev):

   -15.9714 -14.9571  -8.3428  -4.0377  -0.0325   5.9468   9.4770   9.6307
    10.3225  10.6008  11.1234  11.1479  12.4120  12.9453  13.5833  13.6580

          k = 0.4697 0.3412 0.0000 (  2270 PWs)   bands (ev):

   -15.9468 -14.9321  -8.4675  -4.0037  -0.0421   6.1136   9.5106   9.6667
    10.3181  10.6401  11.1616  11.1867  12.3955  12.9845  13.6117  13.6926

          k = 0.4621 0.3543 0.0000 (  2274 PWs)   bands (ev):

   -15.9154 -14.9011  -8.6202  -3.9594  -0.0549   6.3228   9.5536   9.7127
    10.3083  10.6906  11.2107  11.2365  12.3740  13.0350  13.6475  13.7367

          k = 0.4545 0.3674 0.0000 (  2266 PWs)   bands (ev):

   -15.8768 -14.8634  -8.7971  -3.9048  -0.0703   6.5719   9.6061   9.7688
    10.2902  10.7525  11.2706  11.2974  12.3485  13.0967  13.6906  13.7904

          k = 0.4470 0.3805 0.0000 (  2264 PWs)   bands (ev):

   -15.8312 -14.8193  -8.9994  -3.8402  -0.0931   6.8563   9.6678   9.8349
    10.2586  10.8256  11.3413  11.3692  12.3210  13.1697  13.7399  13.8533

          k = 0.4394 0.3936 0.0000 (  2260 PWs)   bands (ev):

   -15.7789 -14.7687  -9.2231  -3.7651  -0.1203   7.1719   9.7382   9.9109
    10.2108  10.9100  11.4228  11.4521  12.2969  13.2539  13.7945  13.9254

          k = 0.4318 0.4068 0.0000 (  2252 PWs)   bands (ev):

   -15.7194 -14.7124  -9.4648  -3.6795  -0.1547   7.5161   9.8175   9.9965
    10.1430  11.0057  11.5148  11.5459  12.2818  13.3494  13.8535  14.0060

          k = 0.4242 0.4199 0.0000 (  2242 PWs)   bands (ev):

   -15.6528 -14.6499  -9.7177  -3.5853  -0.1971   7.8852   9.9050  10.0544
    10.0919  11.1125  11.6174  11.6505  12.2821  13.4559  13.9151  14.0949

          k = 0.4167 0.4330 0.0000 (  2250 PWs)   bands (ev):

   -15.5797 -14.5840  -9.9844  -3.4831  -0.2500   8.2708   9.9458  10.0002
    10.1963  11.2304  11.7304  11.7659  12.3023  13.5735  13.9769  14.1912

          k = 0.4091 0.4461 0.0000 (  2248 PWs)   bands (ev):

   -15.4996 -14.5133 -10.2583  -3.3685  -0.3115   8.6714   9.8226  10.1027
    10.3101  11.3597  11.8535  11.8921  12.3451  13.7025  14.0370  14.2943

          k = 0.4015 0.4593 0.0000 (  2244 PWs)   bands (ev):

   -15.4126 -14.4396 -10.5354  -3.2452  -0.3856   9.0824   9.6899  10.2118
    10.4333  11.5001  11.9865  12.0289  12.4107  13.8426  14.0930  14.4032

          k = 0.3939 0.4724 0.0000 (  2236 PWs)   bands (ev):

   -15.3183 -14.3635 -10.8144  -3.1118  -0.4729   9.4943   9.5547  10.3269
    10.5663  11.6517  12.1292  12.1763  12.4981  13.9938  14.1432  14.5165

          k = 0.3864 0.4855 0.0000 (  2244 PWs)   bands (ev):

   -15.2177 -14.2891 -11.0937  -2.9693  -0.5752   9.4230   9.8966  10.4460
    10.7104  11.8145  12.2808  12.3340  12.6052  14.1562  14.1835  14.6314

          k = 0.3788 0.4986 0.0000 (  2238 PWs)   bands (ev):

   -15.1097 -14.2186 -11.3613  -2.8167  -0.6920   9.3009  10.2798  10.5688
    10.8711  11.9884  12.4410  12.5020  12.7297  14.2166  14.3297  14.7440

          k = 0.3712 0.5117 0.0000 (  2244 PWs)   bands (ev):

   -14.9953 -14.1580 -11.6169  -2.6563  -0.8239   9.1928  10.6127  10.6923
    11.0595  12.1734  12.6087  12.6797  12.8687  14.2415  14.5141  14.8406

          k = 0.3636 0.5249 0.0000 (  2236 PWs)   bands (ev):

   -14.8735 -14.1131 -11.8474  -2.4854  -0.9710   9.1021  10.8155  10.8709
    11.2872  12.3695  12.7829  12.8666  13.0183  14.2657  14.7098  14.8325

          k = 0.3561 0.5380 0.0000 (  2240 PWs)   bands (ev):

   -14.7452 -14.0966 -12.0462  -2.3055  -1.1338   9.0309  10.9344  11.0519
    11.5222  12.5768  12.9615  13.0605  13.1719  14.2931  14.5364  14.8338

          k = 0.3485 0.5511 0.0000 (  2232 PWs)   bands (ev):

   -14.6099 -14.1191 -12.1959  -2.1152  -1.3113   8.9804  11.0466  11.1809
    11.7097  12.7952  13.1428  13.2566  13.3128  14.2033  14.3340  14.5215

          k = 0.3409 0.5642 0.0000 (  2236 PWs)   bands (ev):

   -14.4679 -14.1926 -12.2878  -1.9170  -1.5046   8.9508  11.1477  11.2509
    11.8097  13.0245  13.3241  13.3874  13.4411  13.9097  14.2205  14.3962

          k = 0.3333 0.5774 0.0000 (  2259 PWs)   bands (ev):

   -14.3203 -14.3203 -12.3228  -1.7106  -1.7106   8.9413  11.2303  11.2303
    11.8305  13.2648  13.2648  13.5021  13.5021  13.7088  14.1015  14.4857

     Writing output data file ../tmp/grp.save/

     init_run     :      0.10s CPU      0.08s WALL (       1 calls)
     electrons    :     78.58s CPU     39.66s WALL (       1 calls)

     Called by init_run:
     wfcinit      :      0.00s CPU      0.00s WALL (       1 calls)
     potinit      :      0.02s CPU      0.01s WALL (       1 calls)
     hinit0       :      0.05s CPU      0.04s WALL (       1 calls)

     Called by electrons:
     c_bands      :     78.58s CPU     39.66s WALL (       1 calls)
     v_of_rho     :      0.02s CPU      0.01s WALL (       1 calls)

     Called by c_bands:
     init_us_2    :      0.07s CPU      0.05s WALL (      91 calls)
     cegterg      :     71.52s CPU     36.07s WALL (     214 calls)

     Called by *egterg:
     cdiaghg      :      1.77s CPU      0.92s WALL (    3280 calls)
     h_psi        :     68.37s CPU     34.45s WALL (    3494 calls)
     g_psi        :      0.51s CPU      0.25s WALL (    3189 calls)

     Called by h_psi:
     h_psi:calbec :      1.20s CPU      0.61s WALL (    3494 calls)
     vloc_psi     :     65.99s CPU     33.22s WALL (    3494 calls)
     add_vuspsi   :      1.00s CPU      0.51s WALL (    3494 calls)

     General routines
     calbec       :      1.19s CPU      0.60s WALL (    3494 calls)
     fft          :      0.02s CPU      0.02s WALL (      10 calls)
     fftw         :     61.03s CPU     30.59s WALL (   70258 calls)
     davcio       :      0.04s CPU      0.04s WALL (     182 calls)


     PWSCF        :   1m18.87s CPU     39.91s WALL


   This run was terminated on:  15:15:39  26Jul2020            

=------------------------------------------------------------------------------=
   JOB DONE.
=------------------------------------------------------------------------------=
