
     Program PWSCF v.5.0.2 (svn rev. 9656) starts on 18Feb2014 at 11:21:57 

     This program is part of the open-source Quantum ESPRESSO suite
     for quantum simulation of materials; please cite
         "P. Giannozzi et al., J. Phys.:Condens. Matter 21 395502 (2009);
          URL http://www.quantum-espresso.org", 
     in publications or presentations arising from this work. More details at
     http://www.quantum-espresso.org/quote.php

     Parallel version (MPI), running on     1 processors

     Current dimensions of program PWSCF are:
     Max number of different atomic species (ntypx) = 10
     Max number of k-points (npk) =  40000
     Max angular momentum in pseudopotentials (lmaxx) =  3
     Waiting for input...
     Reading input from standard input

     Atomic positions and unit cell read from directory:
     ../tmp/fesc.save/


     Subspace diagonalization in iterative solution of the eigenvalue problem:
     a serial algorithm will be used

     Found symmetry operation: I + ( -0.5000 -0.5000  0.0000)
     This is a supercell, fractional translations are disabled

     G-vector sticks info
     --------------------
     sticks:   dense  smooth     PW     G-vecs:    dense   smooth      PW
     Sum         885     593    177                13979     7627    1275



     bravais-lattice index     =            6
     lattice parameter (alat)  =       6.0811  a.u.
     unit-cell volume          =     159.0138 (a.u.)^3
     number of atoms/cell      =            2
     number of atomic types    =            1
     number of electrons       =        32.00
     number of Kohn-Sham states=           20
     kinetic-energy cutoff     =      50.0000  Ry
     charge density cutoff     =     300.0000  Ry
     Exchange-correlation      = SLA  PW   PBE  PBE ( 1 4 3 4 0)
     EXX-fraction              =        0.00

     celldm(1)=   6.081115  celldm(2)=   0.000000  celldm(3)=   0.707107
     celldm(4)=   0.000000  celldm(5)=   0.000000  celldm(6)=   0.000000

     crystal axes: (cart. coord. in units of alat)
               a(1) = (   1.000000   0.000000   0.000000 )  
               a(2) = (   0.000000   1.000000   0.000000 )  
               a(3) = (   0.000000   0.000000   0.707107 )  

     reciprocal axes: (cart. coord. in units 2 pi/alat)
               b(1) = (  1.000000  0.000000  0.000000 )  
               b(2) = (  0.000000  1.000000  0.000000 )  
               b(3) = (  0.000000  0.000000  1.414213 )  


     PseudoPot. # 1 for Fe read from file:
     ../pps/fe_pbe_v1.uspp.F.UPF
     MD5 check sum: e6601fc8106164ab3104f788edde3ce3
     Pseudo is Ultrasoft + core correction, Zval = 16.0
     Generated by new atomic code, or converted to UPF format
     Using radial grid of  861 points,  6 beta functions with: 
                l(1) =   0
                l(2) =   0
                l(3) =   1
                l(4) =   1
                l(5) =   2
                l(6) =   2
     Q(r) pseudized with  8 coefficients,  rinner =    1.200   1.200   1.200
                                                       1.200   1.200

     atomic species   valence    mass     pseudopotential
        Fe            16.00    55.85000     Fe( 1.00)

     16 Sym. Ops., with inversion, found



   Cartesian axes

     site n.     atom                  positions (alat units)
         1           Fe  tau(   1) = (   0.0000000   0.0000000   0.0000000  )
         2           Fe  tau(   2) = (   0.5000000   0.5000000   0.0000000  )

     number of k points=   237  Marzari-Vanderbilt smearing, width (Ry)=  0.0200

     Number of k-points >= 100: set verbosity='high' to print them.

     Dense  grid:    13979 G-vectors     FFT dimensions: (  36,  36,  24)

     Smooth grid:     7627 G-vectors     FFT dimensions: (  27,  27,  20)

     Largest allocated arrays     est. size (Mb)     dimensions
        Kohn-Sham Wavefunctions         0.29 Mb     (    964,   20)
        NL pseudopotentials             0.53 Mb     (    964,   36)
        Each V/rho on FFT grid          0.47 Mb     (  31104)
        Each G-vector array             0.11 Mb     (  13979)
        G-vector shells                 0.01 Mb     (    932)
     Largest temporary arrays     est. size (Mb)     dimensions
        Auxiliary wavefunctions         1.18 Mb     (    964,   80)
        Each subspace H/S matrix        0.10 Mb     (  80,  80)
        Each <psi_i|beta_j> matrix      0.01 Mb     (     36,   20)

     Check: negative/imaginary core charge=   -0.000204    0.000000

     The potential is recalculated from file :
     ../tmp/fesc.save/charge-density.dat

     Starting wfc are   26 randomized atomic wfcs

     total cpu time spent up to now is        1.5 secs

     per-process dynamical memory:    16.5 Mb

     Band Structure Calculation
     Davidson diagonalization with overlap

     ethr =  3.13E-11,  avg # of iterations =  9.7

     total cpu time spent up to now is      101.4 secs

     End of band structure calculation

     Number of k-points >= 100: set verbosity='high' to print the bands.

     Writing output data file fesc.save

     init_run     :      1.23s CPU      1.28s WALL (       1 calls)
     electrons    :     91.20s CPU     99.87s WALL (       1 calls)

     Called by init_run:
     wfcinit      :      0.00s CPU      0.00s WALL (       1 calls)
     potinit      :      0.05s CPU      0.06s WALL (       1 calls)

     Called by electrons:
     c_bands      :     91.19s CPU     99.86s WALL (       1 calls)
     v_of_rho     :      0.04s CPU      0.05s WALL (       1 calls)
     newd         :      0.11s CPU      0.12s WALL (       1 calls)

     Called by c_bands:
     init_us_2    :      0.19s CPU      0.27s WALL (     237 calls)
     cegterg      :     79.90s CPU     83.32s WALL (     239 calls)

     Called by *egterg:
     h_psi        :     50.62s CPU     52.98s WALL (    2777 calls)
     s_psi        :      4.67s CPU      4.76s WALL (    2777 calls)
     g_psi        :      0.60s CPU      0.56s WALL (    2301 calls)
     cdiaghg      :      6.24s CPU      6.43s WALL (    2538 calls)

     Called by h_psi:
     add_vuspsi   :      4.34s CPU      4.59s WALL (    2777 calls)

     General routines
     calbec       :      4.65s CPU      4.83s WALL (    2777 calls)
     fft          :      0.01s CPU      0.02s WALL (      13 calls)
     ffts         :      0.00s CPU      0.00s WALL (       1 calls)
     fftw         :     35.11s CPU     36.76s WALL (   90808 calls)
     interpolate  :      0.00s CPU      0.01s WALL (       1 calls)
     davcio       :      0.11s CPU      3.23s WALL (     474 calls)

     Parallel routines
     fft_scatter  :      1.93s CPU      2.09s WALL (   90822 calls)

     PWSCF        :  1m33.64s CPU     1m44.91s WALL


   This run was terminated on:  11:23:42  18Feb2014            

=------------------------------------------------------------------------------=
   JOB DONE.
=------------------------------------------------------------------------------=
