
     Program PWSCF v.5.0.2 (svn rev. 9656) starts on  3Jan2014 at 12:51:36 

     This program is part of the open-source Quantum ESPRESSO suite
     for quantum simulation of materials; please cite
         "P. Giannozzi et al., J. Phys.:Condens. Matter 21 395502 (2009);
          URL http://www.quantum-espresso.org", 
     in publications or presentations arising from this work. More details at
     http://www.quantum-espresso.org/quote.php

     Parallel version (MPI), running on     1 processors

     Current dimensions of program PWSCF are:
     Max number of different atomic species (ntypx) = 10
     Max number of k-points (npk) =  40000
     Max angular momentum in pseudopotentials (lmaxx) =  3
     Waiting for input...
     Reading input from standard input

     Atomic positions and unit cell read from directory:
     ../tmp/fesc.save/
     Nothing found: using input atomic positions and unit cell


     Subspace diagonalization in iterative solution of the eigenvalue problem:
     a serial algorithm will be used

     Found symmetry operation: I + ( -0.5000 -0.5000  0.0000)
     This is a supercell, fractional translations are disabled

     G-vector sticks info
     --------------------
     sticks:   dense  smooth     PW     G-vecs:    dense   smooth      PW
     Sum         885     593    193                13979     7627    1459



     bravais-lattice index     =            6
     lattice parameter (alat)  =       6.0811  a.u.
     unit-cell volume          =     159.0138 (a.u.)^3
     number of atoms/cell      =            2
     number of atomic types    =            1
     number of electrons       =        32.00
     number of Kohn-Sham states=           20
     kinetic-energy cutoff     =      50.0000  Ry
     charge density cutoff     =     300.0000  Ry
     convergence threshold     =      1.0E-08
     mixing beta               =       0.7000
     number of iterations used =            8  plain     mixing
     Exchange-correlation      = SLA  PW   PBE  PBE ( 1 4 3 4 0)
     EXX-fraction              =        0.00

     celldm(1)=   6.081115  celldm(2)=   0.000000  celldm(3)=   0.707107
     celldm(4)=   0.000000  celldm(5)=   0.000000  celldm(6)=   0.000000

     crystal axes: (cart. coord. in units of alat)
               a(1) = (   1.000000   0.000000   0.000000 )  
               a(2) = (   0.000000   1.000000   0.000000 )  
               a(3) = (   0.000000   0.000000   0.707107 )  

     reciprocal axes: (cart. coord. in units 2 pi/alat)
               b(1) = (  1.000000  0.000000  0.000000 )  
               b(2) = (  0.000000  1.000000  0.000000 )  
               b(3) = (  0.000000  0.000000  1.414213 )  


     PseudoPot. # 1 for Fe read from file:
     ../pps/fe_pbe_v1.uspp.F.UPF
     MD5 check sum: e6601fc8106164ab3104f788edde3ce3
     Pseudo is Ultrasoft + core correction, Zval = 16.0
     Generated by new atomic code, or converted to UPF format
     Using radial grid of  861 points,  6 beta functions with: 
                l(1) =   0
                l(2) =   0
                l(3) =   1
                l(4) =   1
                l(5) =   2
                l(6) =   2
     Q(r) pseudized with  8 coefficients,  rinner =    1.200   1.200   1.200
                                                       1.200   1.200

     atomic species   valence    mass     pseudopotential
        Fe            16.00    55.85000     Fe( 1.00)

     16 Sym. Ops., with inversion, found



   Cartesian axes

     site n.     atom                  positions (alat units)
         1           Fe  tau(   1) = (   0.0000000   0.0000000   0.0000000  )
         2           Fe  tau(   2) = (   0.5000000   0.5000000   0.0000000  )

     number of k points=   252  Marzari-Vanderbilt smearing, width (Ry)=  0.0200

     Number of k-points >= 100: set verbosity='high' to print them.

     Dense  grid:    13979 G-vectors     FFT dimensions: (  36,  36,  24)

     Smooth grid:     7627 G-vectors     FFT dimensions: (  27,  27,  20)

     Largest allocated arrays     est. size (Mb)     dimensions
        Kohn-Sham Wavefunctions         0.30 Mb     (    976,   20)
        NL pseudopotentials             0.54 Mb     (    976,   36)
        Each V/rho on FFT grid          0.47 Mb     (  31104)
        Each G-vector array             0.11 Mb     (  13979)
        G-vector shells                 0.01 Mb     (    932)
     Largest temporary arrays     est. size (Mb)     dimensions
        Auxiliary wavefunctions         1.19 Mb     (    976,   80)
        Each subspace H/S matrix        0.10 Mb     (  80,  80)
        Each <psi_i|beta_j> matrix      0.01 Mb     (     36,   20)
        Arrays for rho mixing           3.80 Mb     (  31104,   8)

     Check: negative/imaginary core charge=   -0.000204    0.000000

     The initial density is read from file :
     ../tmp/fesc.save/charge-density.dat

     Starting wfc from file

     total cpu time spent up to now is        1.2 secs

     per-process dynamical memory:    16.4 Mb

     Self-consistent Calculation

     iteration #  1     ecut=    50.00 Ry     beta=0.70
     Davidson diagonalization with overlap
     ethr =  1.00E-05,  avg # of iterations =  1.5

     Threshold (ethr) on eigenvalues was too large:
     Diagonalizing with lowered threshold

     Davidson diagonalization with overlap
     ethr =  8.18E-10,  avg # of iterations =  1.1

     total cpu time spent up to now is       41.4 secs

     total energy              =    -506.77615749 Ry
     Harris-Foulkes estimate   =    -506.77615772 Ry
     estimated scf accuracy    <       0.00000026 Ry

     iteration #  2     ecut=    50.00 Ry     beta=0.70
     Davidson diagonalization with overlap
     ethr =  8.26E-10,  avg # of iterations =  3.0

     total cpu time spent up to now is       70.2 secs

     total energy              =    -506.77615388 Ry
     Harris-Foulkes estimate   =    -506.77616163 Ry
     estimated scf accuracy    <       0.00014640 Ry

     iteration #  3     ecut=    50.00 Ry     beta=0.70
     Davidson diagonalization with overlap
     ethr =  8.26E-10,  avg # of iterations =  3.0

     total cpu time spent up to now is       99.6 secs

     total energy              =    -506.77615771 Ry
     Harris-Foulkes estimate   =    -506.77615772 Ry
     estimated scf accuracy    <       0.00000004 Ry

     iteration #  4     ecut=    50.00 Ry     beta=0.70
     Davidson diagonalization with overlap
     ethr =  1.23E-10,  avg # of iterations =  2.2

     total cpu time spent up to now is      122.1 secs

     End of self-consistent calculation

     Number of k-points >= 100: set verbosity='high' to print the bands.

     the Fermi energy is    17.5098 ev

!    total energy              =    -506.77615771 Ry
     Harris-Foulkes estimate   =    -506.77615771 Ry
     estimated scf accuracy    <          3.4E-11 Ry

     The total energy is the sum of the following terms:

     one-electron contribution =    -257.05731634 Ry
     hartree contribution      =     146.99961701 Ry
     xc contribution           =     -58.88121571 Ry
     ewald contribution        =    -337.83650054 Ry
     smearing contrib. (-TS)   =      -0.00074213 Ry

     convergence has been achieved in   4 iterations

     Writing output data file fesc.save

     init_run     :      1.09s CPU      1.11s WALL (       1 calls)
     electrons    :    114.76s CPU    120.87s WALL (       1 calls)

     Called by init_run:
     wfcinit      :      0.00s CPU      0.00s WALL (       1 calls)
     potinit      :      0.04s CPU      0.04s WALL (       1 calls)

     Called by electrons:
     c_bands      :    100.06s CPU    105.98s WALL (       5 calls)
     sum_band     :     14.14s CPU     14.33s WALL (       5 calls)
     v_of_rho     :      0.16s CPU      0.17s WALL (       5 calls)
     newd         :      0.50s CPU      0.50s WALL (       5 calls)
     mix_rho      :      0.01s CPU      0.01s WALL (       5 calls)

     Called by c_bands:
     init_us_2    :      2.05s CPU      2.13s WALL (    2520 calls)
     cegterg      :     95.04s CPU     95.45s WALL (    1260 calls)

     Called by *egterg:
     h_psi        :     63.21s CPU     63.39s WALL (    3994 calls)
     s_psi        :      5.23s CPU      5.43s WALL (    3994 calls)
     g_psi        :      0.56s CPU      0.56s WALL (    2734 calls)
     cdiaghg      :      5.19s CPU      5.25s WALL (    3490 calls)

     Called by h_psi:
     add_vuspsi   :      5.63s CPU      5.50s WALL (    3994 calls)

     General routines
     calbec       :      7.47s CPU      7.65s WALL (    5254 calls)
     fft          :      0.06s CPU      0.06s WALL (      79 calls)
     ffts         :      0.01s CPU      0.01s WALL (      10 calls)
     fftw         :     54.56s CPU     54.64s WALL (  156434 calls)
     interpolate  :      0.02s CPU      0.02s WALL (      10 calls)
     davcio       :      0.48s CPU      5.65s WALL (    3780 calls)

     Parallel routines
     fft_scatter  :      2.70s CPU      2.84s WALL (  156523 calls)

     PWSCF        :  1m56.40s CPU     2m 2.55s WALL


   This run was terminated on:  12:53:38   3Jan2014            

=------------------------------------------------------------------------------=
   JOB DONE.
=------------------------------------------------------------------------------=
