
     Program PWSCF v.5.0.2 (svn rev. 9656) starts on 18Jan2014 at 14:37: 0 

     This program is part of the open-source Quantum ESPRESSO suite
     for quantum simulation of materials; please cite
         "P. Giannozzi et al., J. Phys.:Condens. Matter 21 395502 (2009);
          URL http://www.quantum-espresso.org", 
     in publications or presentations arising from this work. More details at
     http://www.quantum-espresso.org/quote.php

     Parallel version (MPI), running on     1 processors

     Current dimensions of program PWSCF are:
     Max number of different atomic species (ntypx) = 10
     Max number of k-points (npk) =  40000
     Max angular momentum in pseudopotentials (lmaxx) =  3
     Waiting for input...
     Reading input from standard input

     Atomic positions and unit cell read from directory:
     ../tmp/fe.save/


     Subspace diagonalization in iterative solution of the eigenvalue problem:
     a serial algorithm will be used


     G-vector sticks info
     --------------------
     sticks:   dense  smooth     PW     G-vecs:    dense   smooth      PW
     Sum         437     293    101                 6979     3791     751



     bravais-lattice index     =            1
     lattice parameter (alat)  =       4.3000  a.u.
     unit-cell volume          =      79.5070 (a.u.)^3
     number of atoms/cell      =            1
     number of atomic types    =            1
     number of electrons       =        16.00
     number of Kohn-Sham states=           12
     kinetic-energy cutoff     =      50.0000  Ry
     charge density cutoff     =     300.0000  Ry
     Exchange-correlation      = SLA  PW   PBE  PBE ( 1 4 3 4 0)
     EXX-fraction              =        0.00

     celldm(1)=   4.300000  celldm(2)=   0.000000  celldm(3)=   0.000000
     celldm(4)=   0.000000  celldm(5)=   0.000000  celldm(6)=   0.000000

     crystal axes: (cart. coord. in units of alat)
               a(1) = (   1.000000   0.000000   0.000000 )  
               a(2) = (   0.000000   1.000000   0.000000 )  
               a(3) = (   0.000000   0.000000   1.000000 )  

     reciprocal axes: (cart. coord. in units 2 pi/alat)
               b(1) = (  1.000000  0.000000  0.000000 )  
               b(2) = (  0.000000  1.000000  0.000000 )  
               b(3) = (  0.000000  0.000000  1.000000 )  


     PseudoPot. # 1 for Fe read from file:
     ../pps/fe_pbe_v1.uspp.F.UPF
     MD5 check sum: e6601fc8106164ab3104f788edde3ce3
     Pseudo is Ultrasoft + core correction, Zval = 16.0
     Generated by new atomic code, or converted to UPF format
     Using radial grid of  861 points,  6 beta functions with: 
                l(1) =   0
                l(2) =   0
                l(3) =   1
                l(4) =   1
                l(5) =   2
                l(6) =   2
     Q(r) pseudized with  8 coefficients,  rinner =    1.200   1.200   1.200
                                                       1.200   1.200

     atomic species   valence    mass     pseudopotential
        Fe            16.00    55.85000     Fe( 1.00)

     48 Sym. Ops., with inversion, found


                                    s                        frac. trans.

      isym =  1     identity                                     

 cryst.   s( 1) = (     1          0          0      )
                  (     0          1          0      )
                  (     0          0          1      )

 cart.    s( 1) = (  1.0000000  0.0000000  0.0000000 )
                  (  0.0000000  1.0000000  0.0000000 )
                  (  0.0000000  0.0000000  1.0000000 )


      isym =  2     180 deg rotation - cart. axis [0,0,1]        

 cryst.   s( 2) = (    -1          0          0      )
                  (     0         -1          0      )
                  (     0          0          1      )

 cart.    s( 2) = ( -1.0000000  0.0000000  0.0000000 )
                  (  0.0000000 -1.0000000  0.0000000 )
                  (  0.0000000  0.0000000  1.0000000 )


      isym =  3     180 deg rotation - cart. axis [0,1,0]        

 cryst.   s( 3) = (    -1          0          0      )
                  (     0          1          0      )
                  (     0          0         -1      )

 cart.    s( 3) = ( -1.0000000  0.0000000  0.0000000 )
                  (  0.0000000  1.0000000  0.0000000 )
                  (  0.0000000  0.0000000 -1.0000000 )


      isym =  4     180 deg rotation - cart. axis [1,0,0]        

 cryst.   s( 4) = (     1          0          0      )
                  (     0         -1          0      )
                  (     0          0         -1      )

 cart.    s( 4) = (  1.0000000  0.0000000  0.0000000 )
                  (  0.0000000 -1.0000000  0.0000000 )
                  (  0.0000000  0.0000000 -1.0000000 )


      isym =  5     180 deg rotation - cart. axis [1,1,0]        

 cryst.   s( 5) = (     0          1          0      )
                  (     1          0          0      )
                  (     0          0         -1      )

 cart.    s( 5) = (  0.0000000  1.0000000  0.0000000 )
                  (  1.0000000  0.0000000  0.0000000 )
                  (  0.0000000  0.0000000 -1.0000000 )


      isym =  6     180 deg rotation - cart. axis [1,-1,0]       

 cryst.   s( 6) = (     0         -1          0      )
                  (    -1          0          0      )
                  (     0          0         -1      )

 cart.    s( 6) = (  0.0000000 -1.0000000  0.0000000 )
                  ( -1.0000000  0.0000000  0.0000000 )
                  (  0.0000000  0.0000000 -1.0000000 )


      isym =  7      90 deg rotation - cart. axis [0,0,-1]       

 cryst.   s( 7) = (     0         -1          0      )
                  (     1          0          0      )
                  (     0          0          1      )

 cart.    s( 7) = (  0.0000000  1.0000000  0.0000000 )
                  ( -1.0000000  0.0000000  0.0000000 )
                  (  0.0000000  0.0000000  1.0000000 )


      isym =  8      90 deg rotation - cart. axis [0,0,1]        

 cryst.   s( 8) = (     0          1          0      )
                  (    -1          0          0      )
                  (     0          0          1      )

 cart.    s( 8) = (  0.0000000 -1.0000000  0.0000000 )
                  (  1.0000000  0.0000000  0.0000000 )
                  (  0.0000000  0.0000000  1.0000000 )


      isym =  9     180 deg rotation - cart. axis [1,0,1]        

 cryst.   s( 9) = (     0          0          1      )
                  (     0         -1          0      )
                  (     1          0          0      )

 cart.    s( 9) = (  0.0000000  0.0000000  1.0000000 )
                  (  0.0000000 -1.0000000  0.0000000 )
                  (  1.0000000  0.0000000  0.0000000 )


      isym = 10     180 deg rotation - cart. axis [-1,0,1]       

 cryst.   s(10) = (     0          0         -1      )
                  (     0         -1          0      )
                  (    -1          0          0      )

 cart.    s(10) = (  0.0000000  0.0000000 -1.0000000 )
                  (  0.0000000 -1.0000000  0.0000000 )
                  ( -1.0000000  0.0000000  0.0000000 )


      isym = 11      90 deg rotation - cart. axis [0,1,0]        

 cryst.   s(11) = (     0          0         -1      )
                  (     0          1          0      )
                  (     1          0          0      )

 cart.    s(11) = (  0.0000000  0.0000000  1.0000000 )
                  (  0.0000000  1.0000000  0.0000000 )
                  ( -1.0000000  0.0000000  0.0000000 )


      isym = 12      90 deg rotation - cart. axis [0,-1,0]       

 cryst.   s(12) = (     0          0          1      )
                  (     0          1          0      )
                  (    -1          0          0      )

 cart.    s(12) = (  0.0000000  0.0000000 -1.0000000 )
                  (  0.0000000  1.0000000  0.0000000 )
                  (  1.0000000  0.0000000  0.0000000 )


      isym = 13     180 deg rotation - cart. axis [0,1,1]        

 cryst.   s(13) = (    -1          0          0      )
                  (     0          0          1      )
                  (     0          1          0      )

 cart.    s(13) = ( -1.0000000  0.0000000  0.0000000 )
                  (  0.0000000  0.0000000  1.0000000 )
                  (  0.0000000  1.0000000  0.0000000 )


      isym = 14     180 deg rotation - cart. axis [0,1,-1]       

 cryst.   s(14) = (    -1          0          0      )
                  (     0          0         -1      )
                  (     0         -1          0      )

 cart.    s(14) = ( -1.0000000  0.0000000  0.0000000 )
                  (  0.0000000  0.0000000 -1.0000000 )
                  (  0.0000000 -1.0000000  0.0000000 )


      isym = 15      90 deg rotation - cart. axis [-1,0,0]       

 cryst.   s(15) = (     1          0          0      )
                  (     0          0         -1      )
                  (     0          1          0      )

 cart.    s(15) = (  1.0000000  0.0000000  0.0000000 )
                  (  0.0000000  0.0000000  1.0000000 )
                  (  0.0000000 -1.0000000  0.0000000 )


      isym = 16      90 deg rotation - cart. axis [1,0,0]        

 cryst.   s(16) = (     1          0          0      )
                  (     0          0          1      )
                  (     0         -1          0      )

 cart.    s(16) = (  1.0000000  0.0000000  0.0000000 )
                  (  0.0000000  0.0000000 -1.0000000 )
                  (  0.0000000  1.0000000  0.0000000 )


      isym = 17     120 deg rotation - cart. axis [-1,-1,-1]     

 cryst.   s(17) = (     0          0          1      )
                  (     1          0          0      )
                  (     0          1          0      )

 cart.    s(17) = (  0.0000000  1.0000000  0.0000000 )
                  (  0.0000000  0.0000000  1.0000000 )
                  (  1.0000000  0.0000000  0.0000000 )


      isym = 18     120 deg rotation - cart. axis [-1,1,1]       

 cryst.   s(18) = (     0          0         -1      )
                  (    -1          0          0      )
                  (     0          1          0      )

 cart.    s(18) = (  0.0000000 -1.0000000  0.0000000 )
                  (  0.0000000  0.0000000  1.0000000 )
                  ( -1.0000000  0.0000000  0.0000000 )


      isym = 19     120 deg rotation - cart. axis [1,1,-1]       

 cryst.   s(19) = (     0          0         -1      )
                  (     1          0          0      )
                  (     0         -1          0      )

 cart.    s(19) = (  0.0000000  1.0000000  0.0000000 )
                  (  0.0000000  0.0000000 -1.0000000 )
                  ( -1.0000000  0.0000000  0.0000000 )


      isym = 20     120 deg rotation - cart. axis [1,-1,1]       

 cryst.   s(20) = (     0          0          1      )
                  (    -1          0          0      )
                  (     0         -1          0      )

 cart.    s(20) = (  0.0000000 -1.0000000  0.0000000 )
                  (  0.0000000  0.0000000 -1.0000000 )
                  (  1.0000000  0.0000000  0.0000000 )


      isym = 21     120 deg rotation - cart. axis [1,1,1]        

 cryst.   s(21) = (     0          1          0      )
                  (     0          0          1      )
                  (     1          0          0      )

 cart.    s(21) = (  0.0000000  0.0000000  1.0000000 )
                  (  1.0000000  0.0000000  0.0000000 )
                  (  0.0000000  1.0000000  0.0000000 )


      isym = 22     120 deg rotation - cart. axis [-1,1,-1]      

 cryst.   s(22) = (     0         -1          0      )
                  (     0          0         -1      )
                  (     1          0          0      )

 cart.    s(22) = (  0.0000000  0.0000000  1.0000000 )
                  ( -1.0000000  0.0000000  0.0000000 )
                  (  0.0000000 -1.0000000  0.0000000 )


      isym = 23     120 deg rotation - cart. axis [1,-1,-1]      

 cryst.   s(23) = (     0         -1          0      )
                  (     0          0          1      )
                  (    -1          0          0      )

 cart.    s(23) = (  0.0000000  0.0000000 -1.0000000 )
                  ( -1.0000000  0.0000000  0.0000000 )
                  (  0.0000000  1.0000000  0.0000000 )


      isym = 24     120 deg rotation - cart. axis [-1,-1,1]      

 cryst.   s(24) = (     0          1          0      )
                  (     0          0         -1      )
                  (    -1          0          0      )

 cart.    s(24) = (  0.0000000  0.0000000 -1.0000000 )
                  (  1.0000000  0.0000000  0.0000000 )
                  (  0.0000000 -1.0000000  0.0000000 )


      isym = 25     inversion                                    

 cryst.   s(25) = (    -1          0          0      )
                  (     0         -1          0      )
                  (     0          0         -1      )

 cart.    s(25) = ( -1.0000000  0.0000000  0.0000000 )
                  (  0.0000000 -1.0000000  0.0000000 )
                  (  0.0000000  0.0000000 -1.0000000 )


      isym = 26     inv. 180 deg rotation - cart. axis [0,0,1]   

 cryst.   s(26) = (     1          0          0      )
                  (     0          1          0      )
                  (     0          0         -1      )

 cart.    s(26) = (  1.0000000  0.0000000  0.0000000 )
                  (  0.0000000  1.0000000  0.0000000 )
                  (  0.0000000  0.0000000 -1.0000000 )


      isym = 27     inv. 180 deg rotation - cart. axis [0,1,0]   

 cryst.   s(27) = (     1          0          0      )
                  (     0         -1          0      )
                  (     0          0          1      )

 cart.    s(27) = (  1.0000000  0.0000000  0.0000000 )
                  (  0.0000000 -1.0000000  0.0000000 )
                  (  0.0000000  0.0000000  1.0000000 )


      isym = 28     inv. 180 deg rotation - cart. axis [1,0,0]   

 cryst.   s(28) = (    -1          0          0      )
                  (     0          1          0      )
                  (     0          0          1      )

 cart.    s(28) = ( -1.0000000  0.0000000  0.0000000 )
                  (  0.0000000  1.0000000  0.0000000 )
                  (  0.0000000  0.0000000  1.0000000 )


      isym = 29     inv. 180 deg rotation - cart. axis [1,1,0]   

 cryst.   s(29) = (     0         -1          0      )
                  (    -1          0          0      )
                  (     0          0          1      )

 cart.    s(29) = (  0.0000000 -1.0000000  0.0000000 )
                  ( -1.0000000  0.0000000  0.0000000 )
                  (  0.0000000  0.0000000  1.0000000 )


      isym = 30     inv. 180 deg rotation - cart. axis [1,-1,0]  

 cryst.   s(30) = (     0          1          0      )
                  (     1          0          0      )
                  (     0          0          1      )

 cart.    s(30) = (  0.0000000  1.0000000  0.0000000 )
                  (  1.0000000  0.0000000  0.0000000 )
                  (  0.0000000  0.0000000  1.0000000 )


      isym = 31     inv.  90 deg rotation - cart. axis [0,0,-1]  

 cryst.   s(31) = (     0          1          0      )
                  (    -1          0          0      )
                  (     0          0         -1      )

 cart.    s(31) = (  0.0000000 -1.0000000  0.0000000 )
                  (  1.0000000  0.0000000  0.0000000 )
                  (  0.0000000  0.0000000 -1.0000000 )


      isym = 32     inv.  90 deg rotation - cart. axis [0,0,1]   

 cryst.   s(32) = (     0         -1          0      )
                  (     1          0          0      )
                  (     0          0         -1      )

 cart.    s(32) = (  0.0000000  1.0000000  0.0000000 )
                  ( -1.0000000  0.0000000  0.0000000 )
                  (  0.0000000  0.0000000 -1.0000000 )


      isym = 33     inv. 180 deg rotation - cart. axis [1,0,1]   

 cryst.   s(33) = (     0          0         -1      )
                  (     0          1          0      )
                  (    -1          0          0      )

 cart.    s(33) = (  0.0000000  0.0000000 -1.0000000 )
                  (  0.0000000  1.0000000  0.0000000 )
                  ( -1.0000000  0.0000000  0.0000000 )


      isym = 34     inv. 180 deg rotation - cart. axis [-1,0,1]  

 cryst.   s(34) = (     0          0          1      )
                  (     0          1          0      )
                  (     1          0          0      )

 cart.    s(34) = (  0.0000000  0.0000000  1.0000000 )
                  (  0.0000000  1.0000000  0.0000000 )
                  (  1.0000000  0.0000000  0.0000000 )


      isym = 35     inv.  90 deg rotation - cart. axis [0,1,0]   

 cryst.   s(35) = (     0          0          1      )
                  (     0         -1          0      )
                  (    -1          0          0      )

 cart.    s(35) = (  0.0000000  0.0000000 -1.0000000 )
                  (  0.0000000 -1.0000000  0.0000000 )
                  (  1.0000000  0.0000000  0.0000000 )


      isym = 36     inv.  90 deg rotation - cart. axis [0,-1,0]  

 cryst.   s(36) = (     0          0         -1      )
                  (     0         -1          0      )
                  (     1          0          0      )

 cart.    s(36) = (  0.0000000  0.0000000  1.0000000 )
                  (  0.0000000 -1.0000000  0.0000000 )
                  ( -1.0000000  0.0000000  0.0000000 )


      isym = 37     inv. 180 deg rotation - cart. axis [0,1,1]   

 cryst.   s(37) = (     1          0          0      )
                  (     0          0         -1      )
                  (     0         -1          0      )

 cart.    s(37) = (  1.0000000  0.0000000  0.0000000 )
                  (  0.0000000  0.0000000 -1.0000000 )
                  (  0.0000000 -1.0000000  0.0000000 )


      isym = 38     inv. 180 deg rotation - cart. axis [0,1,-1]  

 cryst.   s(38) = (     1          0          0      )
                  (     0          0          1      )
                  (     0          1          0      )

 cart.    s(38) = (  1.0000000  0.0000000  0.0000000 )
                  (  0.0000000  0.0000000  1.0000000 )
                  (  0.0000000  1.0000000  0.0000000 )


      isym = 39     inv.  90 deg rotation - cart. axis [-1,0,0]  

 cryst.   s(39) = (    -1          0          0      )
                  (     0          0          1      )
                  (     0         -1          0      )

 cart.    s(39) = ( -1.0000000  0.0000000  0.0000000 )
                  (  0.0000000  0.0000000 -1.0000000 )
                  (  0.0000000  1.0000000  0.0000000 )


      isym = 40     inv.  90 deg rotation - cart. axis [1,0,0]   

 cryst.   s(40) = (    -1          0          0      )
                  (     0          0         -1      )
                  (     0          1          0      )

 cart.    s(40) = ( -1.0000000  0.0000000  0.0000000 )
                  (  0.0000000  0.0000000  1.0000000 )
                  (  0.0000000 -1.0000000  0.0000000 )


      isym = 41     inv. 120 deg rotation - cart. axis [-1,-1,-1]

 cryst.   s(41) = (     0          0         -1      )
                  (    -1          0          0      )
                  (     0         -1          0      )

 cart.    s(41) = (  0.0000000 -1.0000000  0.0000000 )
                  (  0.0000000  0.0000000 -1.0000000 )
                  ( -1.0000000  0.0000000  0.0000000 )


      isym = 42     inv. 120 deg rotation - cart. axis [-1,1,1]  

 cryst.   s(42) = (     0          0          1      )
                  (     1          0          0      )
                  (     0         -1          0      )

 cart.    s(42) = (  0.0000000  1.0000000  0.0000000 )
                  (  0.0000000  0.0000000 -1.0000000 )
                  (  1.0000000  0.0000000  0.0000000 )


      isym = 43     inv. 120 deg rotation - cart. axis [1,1,-1]  

 cryst.   s(43) = (     0          0          1      )
                  (    -1          0          0      )
                  (     0          1          0      )

 cart.    s(43) = (  0.0000000 -1.0000000  0.0000000 )
                  (  0.0000000  0.0000000  1.0000000 )
                  (  1.0000000  0.0000000  0.0000000 )


      isym = 44     inv. 120 deg rotation - cart. axis [1,-1,1]  

 cryst.   s(44) = (     0          0         -1      )
                  (     1          0          0      )
                  (     0          1          0      )

 cart.    s(44) = (  0.0000000  1.0000000  0.0000000 )
                  (  0.0000000  0.0000000  1.0000000 )
                  ( -1.0000000  0.0000000  0.0000000 )


      isym = 45     inv. 120 deg rotation - cart. axis [1,1,1]   

 cryst.   s(45) = (     0         -1          0      )
                  (     0          0         -1      )
                  (    -1          0          0      )

 cart.    s(45) = (  0.0000000  0.0000000 -1.0000000 )
                  ( -1.0000000  0.0000000  0.0000000 )
                  (  0.0000000 -1.0000000  0.0000000 )


      isym = 46     inv. 120 deg rotation - cart. axis [-1,1,-1] 

 cryst.   s(46) = (     0          1          0      )
                  (     0          0          1      )
                  (    -1          0          0      )

 cart.    s(46) = (  0.0000000  0.0000000 -1.0000000 )
                  (  1.0000000  0.0000000  0.0000000 )
                  (  0.0000000  1.0000000  0.0000000 )


      isym = 47     inv. 120 deg rotation - cart. axis [1,-1,-1] 

 cryst.   s(47) = (     0          1          0      )
                  (     0          0         -1      )
                  (     1          0          0      )

 cart.    s(47) = (  0.0000000  0.0000000  1.0000000 )
                  (  1.0000000  0.0000000  0.0000000 )
                  (  0.0000000 -1.0000000  0.0000000 )


      isym = 48     inv. 120 deg rotation - cart. axis [-1,-1,1] 

 cryst.   s(48) = (     0         -1          0      )
                  (     0          0          1      )
                  (     1          0          0      )

 cart.    s(48) = (  0.0000000  0.0000000  1.0000000 )
                  ( -1.0000000  0.0000000  0.0000000 )
                  (  0.0000000  1.0000000  0.0000000 )


     point group O_h (m-3m) 
     there are 10 classes
     the character table:

       E     8C3   6C2'  6C4   3C2   i     6S4   8S6   3s_h  6s_d 
A_1g   1.00  1.00  1.00  1.00  1.00  1.00  1.00  1.00  1.00  1.00
A_2g   1.00  1.00 -1.00 -1.00  1.00  1.00 -1.00  1.00  1.00 -1.00
E_g    2.00 -1.00  0.00  0.00  2.00  2.00  0.00 -1.00  2.00  0.00
T_1g   3.00  0.00 -1.00  1.00 -1.00  3.00  1.00  0.00 -1.00 -1.00
T_2g   3.00  0.00  1.00 -1.00 -1.00  3.00 -1.00  0.00 -1.00  1.00
A_1u   1.00  1.00  1.00  1.00  1.00 -1.00 -1.00 -1.00 -1.00 -1.00
A_2u   1.00  1.00 -1.00 -1.00  1.00 -1.00  1.00 -1.00 -1.00  1.00
E_u    2.00 -1.00  0.00  0.00  2.00 -2.00  0.00  1.00 -2.00  0.00
T_1u   3.00  0.00 -1.00  1.00 -1.00 -3.00 -1.00  0.00  1.00  1.00
T_2u   3.00  0.00  1.00 -1.00 -1.00 -3.00  1.00  0.00  1.00 -1.00

     the symmetry operations in each class:
     E        1
     3C2      2    4    3
     6C2'     5    6   14   13   10    9
     6C4      7    8   15   16   12   11
     8C3     17   19   20   18   24   21   22   23
     i       25
     3s_h    26   28   27
     6s_d    29   30   38   37   34   33
     6S4     31   32   39   40   36   35
     8S6     41   43   44   42   48   45   46   47

   Cartesian axes

     site n.     atom                  positions (alat units)
         1           Fe  tau(   1) = (   0.0000000   0.0000000   0.0000000  )

   Crystallographic axes

     site n.     atom                  positions (cryst. coord.)
         1           Fe  tau(   1) = (  0.0000000  0.0000000  0.0000000  )

     number of k points=   281  Marzari-Vanderbilt smearing, width (Ry)=  0.0200
                       cart. coord. in units 2pi/alat
        k(    1) = (   0.0000000   0.0000000   0.0000000), wk =   0.0071174
        k(    2) = (   0.0000000   0.0125000   0.0000000), wk =   0.0071174
        k(    3) = (   0.0000000   0.0250000   0.0000000), wk =   0.0071174
        k(    4) = (   0.0000000   0.0375000   0.0000000), wk =   0.0071174
        k(    5) = (   0.0000000   0.0500000   0.0000000), wk =   0.0071174
        k(    6) = (   0.0000000   0.0625000   0.0000000), wk =   0.0071174
        k(    7) = (   0.0000000   0.0750000   0.0000000), wk =   0.0071174
        k(    8) = (   0.0000000   0.0875000   0.0000000), wk =   0.0071174
        k(    9) = (   0.0000000   0.1000000   0.0000000), wk =   0.0071174
        k(   10) = (   0.0000000   0.1125000   0.0000000), wk =   0.0071174
        k(   11) = (   0.0000000   0.1250000   0.0000000), wk =   0.0071174
        k(   12) = (   0.0000000   0.1375000   0.0000000), wk =   0.0071174
        k(   13) = (   0.0000000   0.1500000   0.0000000), wk =   0.0071174
        k(   14) = (   0.0000000   0.1625000   0.0000000), wk =   0.0071174
        k(   15) = (   0.0000000   0.1750000   0.0000000), wk =   0.0071174
        k(   16) = (   0.0000000   0.1875000   0.0000000), wk =   0.0071174
        k(   17) = (   0.0000000   0.2000000   0.0000000), wk =   0.0071174
        k(   18) = (   0.0000000   0.2125000   0.0000000), wk =   0.0071174
        k(   19) = (   0.0000000   0.2250000   0.0000000), wk =   0.0071174
        k(   20) = (   0.0000000   0.2375000   0.0000000), wk =   0.0071174
        k(   21) = (   0.0000000   0.2500000   0.0000000), wk =   0.0071174
        k(   22) = (   0.0000000   0.2625000   0.0000000), wk =   0.0071174
        k(   23) = (   0.0000000   0.2750000   0.0000000), wk =   0.0071174
        k(   24) = (   0.0000000   0.2875000   0.0000000), wk =   0.0071174
        k(   25) = (   0.0000000   0.3000000   0.0000000), wk =   0.0071174
        k(   26) = (   0.0000000   0.3125000   0.0000000), wk =   0.0071174
        k(   27) = (   0.0000000   0.3250000   0.0000000), wk =   0.0071174
        k(   28) = (   0.0000000   0.3375000   0.0000000), wk =   0.0071174
        k(   29) = (   0.0000000   0.3500000   0.0000000), wk =   0.0071174
        k(   30) = (   0.0000000   0.3625000   0.0000000), wk =   0.0071174
        k(   31) = (   0.0000000   0.3750000   0.0000000), wk =   0.0071174
        k(   32) = (   0.0000000   0.3875000   0.0000000), wk =   0.0071174
        k(   33) = (   0.0000000   0.4000000   0.0000000), wk =   0.0071174
        k(   34) = (   0.0000000   0.4125000   0.0000000), wk =   0.0071174
        k(   35) = (   0.0000000   0.4250000   0.0000000), wk =   0.0071174
        k(   36) = (   0.0000000   0.4375000   0.0000000), wk =   0.0071174
        k(   37) = (   0.0000000   0.4500000   0.0000000), wk =   0.0071174
        k(   38) = (   0.0000000   0.4625000   0.0000000), wk =   0.0071174
        k(   39) = (   0.0000000   0.4750000   0.0000000), wk =   0.0071174
        k(   40) = (   0.0000000   0.4875000   0.0000000), wk =   0.0071174
        k(   41) = (   0.0000000   0.5000000   0.0000000), wk =   0.0071174
        k(   42) = (   0.0125000   0.5000000   0.0000000), wk =   0.0071174
        k(   43) = (   0.0250000   0.5000000   0.0000000), wk =   0.0071174
        k(   44) = (   0.0375000   0.5000000   0.0000000), wk =   0.0071174
        k(   45) = (   0.0500000   0.5000000   0.0000000), wk =   0.0071174
        k(   46) = (   0.0625000   0.5000000   0.0000000), wk =   0.0071174
        k(   47) = (   0.0750000   0.5000000   0.0000000), wk =   0.0071174
        k(   48) = (   0.0875000   0.5000000   0.0000000), wk =   0.0071174
        k(   49) = (   0.1000000   0.5000000   0.0000000), wk =   0.0071174
        k(   50) = (   0.1125000   0.5000000   0.0000000), wk =   0.0071174
        k(   51) = (   0.1250000   0.5000000   0.0000000), wk =   0.0071174
        k(   52) = (   0.1375000   0.5000000   0.0000000), wk =   0.0071174
        k(   53) = (   0.1500000   0.5000000   0.0000000), wk =   0.0071174
        k(   54) = (   0.1625000   0.5000000   0.0000000), wk =   0.0071174
        k(   55) = (   0.1750000   0.5000000   0.0000000), wk =   0.0071174
        k(   56) = (   0.1875000   0.5000000   0.0000000), wk =   0.0071174
        k(   57) = (   0.2000000   0.5000000   0.0000000), wk =   0.0071174
        k(   58) = (   0.2125000   0.5000000   0.0000000), wk =   0.0071174
        k(   59) = (   0.2250000   0.5000000   0.0000000), wk =   0.0071174
        k(   60) = (   0.2375000   0.5000000   0.0000000), wk =   0.0071174
        k(   61) = (   0.2500000   0.5000000   0.0000000), wk =   0.0071174
        k(   62) = (   0.2625000   0.5000000   0.0000000), wk =   0.0071174
        k(   63) = (   0.2750000   0.5000000   0.0000000), wk =   0.0071174
        k(   64) = (   0.2875000   0.5000000   0.0000000), wk =   0.0071174
        k(   65) = (   0.3000000   0.5000000   0.0000000), wk =   0.0071174
        k(   66) = (   0.3125000   0.5000000   0.0000000), wk =   0.0071174
        k(   67) = (   0.3250000   0.5000000   0.0000000), wk =   0.0071174
        k(   68) = (   0.3375000   0.5000000   0.0000000), wk =   0.0071174
        k(   69) = (   0.3500000   0.5000000   0.0000000), wk =   0.0071174
        k(   70) = (   0.3625000   0.5000000   0.0000000), wk =   0.0071174
        k(   71) = (   0.3750000   0.5000000   0.0000000), wk =   0.0071174
        k(   72) = (   0.3875000   0.5000000   0.0000000), wk =   0.0071174
        k(   73) = (   0.4000000   0.5000000   0.0000000), wk =   0.0071174
        k(   74) = (   0.4125000   0.5000000   0.0000000), wk =   0.0071174
        k(   75) = (   0.4250000   0.5000000   0.0000000), wk =   0.0071174
        k(   76) = (   0.4375000   0.5000000   0.0000000), wk =   0.0071174
        k(   77) = (   0.4500000   0.5000000   0.0000000), wk =   0.0071174
        k(   78) = (   0.4625000   0.5000000   0.0000000), wk =   0.0071174
        k(   79) = (   0.4750000   0.5000000   0.0000000), wk =   0.0071174
        k(   80) = (   0.4875000   0.5000000   0.0000000), wk =   0.0071174
        k(   81) = (   0.5000000   0.5000000   0.0000000), wk =   0.0071174
        k(   82) = (   0.4875000   0.4875000   0.0000000), wk =   0.0071174
        k(   83) = (   0.4750000   0.4750000   0.0000000), wk =   0.0071174
        k(   84) = (   0.4625000   0.4625000   0.0000000), wk =   0.0071174
        k(   85) = (   0.4500000   0.4500000   0.0000000), wk =   0.0071174
        k(   86) = (   0.4375000   0.4375000   0.0000000), wk =   0.0071174
        k(   87) = (   0.4250000   0.4250000   0.0000000), wk =   0.0071174
        k(   88) = (   0.4125000   0.4125000   0.0000000), wk =   0.0071174
        k(   89) = (   0.4000000   0.4000000   0.0000000), wk =   0.0071174
        k(   90) = (   0.3875000   0.3875000   0.0000000), wk =   0.0071174
        k(   91) = (   0.3750000   0.3750000   0.0000000), wk =   0.0071174
        k(   92) = (   0.3625000   0.3625000   0.0000000), wk =   0.0071174
        k(   93) = (   0.3500000   0.3500000   0.0000000), wk =   0.0071174
        k(   94) = (   0.3375000   0.3375000   0.0000000), wk =   0.0071174
        k(   95) = (   0.3250000   0.3250000   0.0000000), wk =   0.0071174
        k(   96) = (   0.3125000   0.3125000   0.0000000), wk =   0.0071174
        k(   97) = (   0.3000000   0.3000000   0.0000000), wk =   0.0071174
        k(   98) = (   0.2875000   0.2875000   0.0000000), wk =   0.0071174
        k(   99) = (   0.2750000   0.2750000   0.0000000), wk =   0.0071174
        k(  100) = (   0.2625000   0.2625000   0.0000000), wk =   0.0071174
        k(  101) = (   0.2500000   0.2500000   0.0000000), wk =   0.0071174
        k(  102) = (   0.2375000   0.2375000   0.0000000), wk =   0.0071174
        k(  103) = (   0.2250000   0.2250000   0.0000000), wk =   0.0071174
        k(  104) = (   0.2125000   0.2125000   0.0000000), wk =   0.0071174
        k(  105) = (   0.2000000   0.2000000   0.0000000), wk =   0.0071174
        k(  106) = (   0.1875000   0.1875000   0.0000000), wk =   0.0071174
        k(  107) = (   0.1750000   0.1750000   0.0000000), wk =   0.0071174
        k(  108) = (   0.1625000   0.1625000   0.0000000), wk =   0.0071174
        k(  109) = (   0.1500000   0.1500000   0.0000000), wk =   0.0071174
        k(  110) = (   0.1375000   0.1375000   0.0000000), wk =   0.0071174
        k(  111) = (   0.1250000   0.1250000   0.0000000), wk =   0.0071174
        k(  112) = (   0.1125000   0.1125000   0.0000000), wk =   0.0071174
        k(  113) = (   0.1000000   0.1000000   0.0000000), wk =   0.0071174
        k(  114) = (   0.0875000   0.0875000   0.0000000), wk =   0.0071174
        k(  115) = (   0.0750000   0.0750000   0.0000000), wk =   0.0071174
        k(  116) = (   0.0625000   0.0625000   0.0000000), wk =   0.0071174
        k(  117) = (   0.0500000   0.0500000   0.0000000), wk =   0.0071174
        k(  118) = (   0.0375000   0.0375000   0.0000000), wk =   0.0071174
        k(  119) = (   0.0250000   0.0250000   0.0000000), wk =   0.0071174
        k(  120) = (   0.0125000   0.0125000   0.0000000), wk =   0.0071174
        k(  121) = (   0.0000000   0.0000000   0.0000000), wk =   0.0071174
        k(  122) = (   0.0125000   0.0125000   0.0125000), wk =   0.0071174
        k(  123) = (   0.0250000   0.0250000   0.0250000), wk =   0.0071174
        k(  124) = (   0.0375000   0.0375000   0.0375000), wk =   0.0071174
        k(  125) = (   0.0500000   0.0500000   0.0500000), wk =   0.0071174
        k(  126) = (   0.0625000   0.0625000   0.0625000), wk =   0.0071174
        k(  127) = (   0.0750000   0.0750000   0.0750000), wk =   0.0071174
        k(  128) = (   0.0875000   0.0875000   0.0875000), wk =   0.0071174
        k(  129) = (   0.1000000   0.1000000   0.1000000), wk =   0.0071174
        k(  130) = (   0.1125000   0.1125000   0.1125000), wk =   0.0071174
        k(  131) = (   0.1250000   0.1250000   0.1250000), wk =   0.0071174
        k(  132) = (   0.1375000   0.1375000   0.1375000), wk =   0.0071174
        k(  133) = (   0.1500000   0.1500000   0.1500000), wk =   0.0071174
        k(  134) = (   0.1625000   0.1625000   0.1625000), wk =   0.0071174
        k(  135) = (   0.1750000   0.1750000   0.1750000), wk =   0.0071174
        k(  136) = (   0.1875000   0.1875000   0.1875000), wk =   0.0071174
        k(  137) = (   0.2000000   0.2000000   0.2000000), wk =   0.0071174
        k(  138) = (   0.2125000   0.2125000   0.2125000), wk =   0.0071174
        k(  139) = (   0.2250000   0.2250000   0.2250000), wk =   0.0071174
        k(  140) = (   0.2375000   0.2375000   0.2375000), wk =   0.0071174
        k(  141) = (   0.2500000   0.2500000   0.2500000), wk =   0.0071174
        k(  142) = (   0.2625000   0.2625000   0.2625000), wk =   0.0071174
        k(  143) = (   0.2750000   0.2750000   0.2750000), wk =   0.0071174
        k(  144) = (   0.2875000   0.2875000   0.2875000), wk =   0.0071174
        k(  145) = (   0.3000000   0.3000000   0.3000000), wk =   0.0071174
        k(  146) = (   0.3125000   0.3125000   0.3125000), wk =   0.0071174
        k(  147) = (   0.3250000   0.3250000   0.3250000), wk =   0.0071174
        k(  148) = (   0.3375000   0.3375000   0.3375000), wk =   0.0071174
        k(  149) = (   0.3500000   0.3500000   0.3500000), wk =   0.0071174
        k(  150) = (   0.3625000   0.3625000   0.3625000), wk =   0.0071174
        k(  151) = (   0.3750000   0.3750000   0.3750000), wk =   0.0071174
        k(  152) = (   0.3875000   0.3875000   0.3875000), wk =   0.0071174
        k(  153) = (   0.4000000   0.4000000   0.4000000), wk =   0.0071174
        k(  154) = (   0.4125000   0.4125000   0.4125000), wk =   0.0071174
        k(  155) = (   0.4250000   0.4250000   0.4250000), wk =   0.0071174
        k(  156) = (   0.4375000   0.4375000   0.4375000), wk =   0.0071174
        k(  157) = (   0.4500000   0.4500000   0.4500000), wk =   0.0071174
        k(  158) = (   0.4625000   0.4625000   0.4625000), wk =   0.0071174
        k(  159) = (   0.4750000   0.4750000   0.4750000), wk =   0.0071174
        k(  160) = (   0.4875000   0.4875000   0.4875000), wk =   0.0071174
        k(  161) = (   0.5000000   0.5000000   0.5000000), wk =   0.0071174
        k(  162) = (   0.4875000   0.5000000   0.4875000), wk =   0.0071174
        k(  163) = (   0.4750000   0.5000000   0.4750000), wk =   0.0071174
        k(  164) = (   0.4625000   0.5000000   0.4625000), wk =   0.0071174
        k(  165) = (   0.4500000   0.5000000   0.4500000), wk =   0.0071174
        k(  166) = (   0.4375000   0.5000000   0.4375000), wk =   0.0071174
        k(  167) = (   0.4250000   0.5000000   0.4250000), wk =   0.0071174
        k(  168) = (   0.4125000   0.5000000   0.4125000), wk =   0.0071174
        k(  169) = (   0.4000000   0.5000000   0.4000000), wk =   0.0071174
        k(  170) = (   0.3875000   0.5000000   0.3875000), wk =   0.0071174
        k(  171) = (   0.3750000   0.5000000   0.3750000), wk =   0.0071174
        k(  172) = (   0.3625000   0.5000000   0.3625000), wk =   0.0071174
        k(  173) = (   0.3500000   0.5000000   0.3500000), wk =   0.0071174
        k(  174) = (   0.3375000   0.5000000   0.3375000), wk =   0.0071174
        k(  175) = (   0.3250000   0.5000000   0.3250000), wk =   0.0071174
        k(  176) = (   0.3125000   0.5000000   0.3125000), wk =   0.0071174
        k(  177) = (   0.3000000   0.5000000   0.3000000), wk =   0.0071174
        k(  178) = (   0.2875000   0.5000000   0.2875000), wk =   0.0071174
        k(  179) = (   0.2750000   0.5000000   0.2750000), wk =   0.0071174
        k(  180) = (   0.2625000   0.5000000   0.2625000), wk =   0.0071174
        k(  181) = (   0.2500000   0.5000000   0.2500000), wk =   0.0071174
        k(  182) = (   0.2375000   0.5000000   0.2375000), wk =   0.0071174
        k(  183) = (   0.2250000   0.5000000   0.2250000), wk =   0.0071174
        k(  184) = (   0.2125000   0.5000000   0.2125000), wk =   0.0071174
        k(  185) = (   0.2000000   0.5000000   0.2000000), wk =   0.0071174
        k(  186) = (   0.1875000   0.5000000   0.1875000), wk =   0.0071174
        k(  187) = (   0.1750000   0.5000000   0.1750000), wk =   0.0071174
        k(  188) = (   0.1625000   0.5000000   0.1625000), wk =   0.0071174
        k(  189) = (   0.1500000   0.5000000   0.1500000), wk =   0.0071174
        k(  190) = (   0.1375000   0.5000000   0.1375000), wk =   0.0071174
        k(  191) = (   0.1250000   0.5000000   0.1250000), wk =   0.0071174
        k(  192) = (   0.1125000   0.5000000   0.1125000), wk =   0.0071174
        k(  193) = (   0.1000000   0.5000000   0.1000000), wk =   0.0071174
        k(  194) = (   0.0875000   0.5000000   0.0875000), wk =   0.0071174
        k(  195) = (   0.0750000   0.5000000   0.0750000), wk =   0.0071174
        k(  196) = (   0.0625000   0.5000000   0.0625000), wk =   0.0071174
        k(  197) = (   0.0500000   0.5000000   0.0500000), wk =   0.0071174
        k(  198) = (   0.0375000   0.5000000   0.0375000), wk =   0.0071174
        k(  199) = (   0.0250000   0.5000000   0.0250000), wk =   0.0071174
        k(  200) = (   0.0125000   0.5000000   0.0125000), wk =   0.0071174
        k(  201) = (   0.0000000   0.5000000   0.0000000), wk =   0.0071174
        k(  202) = (   0.0125000   0.5000000   0.0000000), wk =   0.0071174
        k(  203) = (   0.0250000   0.5000000   0.0000000), wk =   0.0071174
        k(  204) = (   0.0375000   0.5000000   0.0000000), wk =   0.0071174
        k(  205) = (   0.0500000   0.5000000   0.0000000), wk =   0.0071174
        k(  206) = (   0.0625000   0.5000000   0.0000000), wk =   0.0071174
        k(  207) = (   0.0750000   0.5000000   0.0000000), wk =   0.0071174
        k(  208) = (   0.0875000   0.5000000   0.0000000), wk =   0.0071174
        k(  209) = (   0.1000000   0.5000000   0.0000000), wk =   0.0071174
        k(  210) = (   0.1125000   0.5000000   0.0000000), wk =   0.0071174
        k(  211) = (   0.1250000   0.5000000   0.0000000), wk =   0.0071174
        k(  212) = (   0.1375000   0.5000000   0.0000000), wk =   0.0071174
        k(  213) = (   0.1500000   0.5000000   0.0000000), wk =   0.0071174
        k(  214) = (   0.1625000   0.5000000   0.0000000), wk =   0.0071174
        k(  215) = (   0.1750000   0.5000000   0.0000000), wk =   0.0071174
        k(  216) = (   0.1875000   0.5000000   0.0000000), wk =   0.0071174
        k(  217) = (   0.2000000   0.5000000   0.0000000), wk =   0.0071174
        k(  218) = (   0.2125000   0.5000000   0.0000000), wk =   0.0071174
        k(  219) = (   0.2250000   0.5000000   0.0000000), wk =   0.0071174
        k(  220) = (   0.2375000   0.5000000   0.0000000), wk =   0.0071174
        k(  221) = (   0.2500000   0.5000000   0.0000000), wk =   0.0071174
        k(  222) = (   0.2625000   0.5000000   0.0000000), wk =   0.0071174
        k(  223) = (   0.2750000   0.5000000   0.0000000), wk =   0.0071174
        k(  224) = (   0.2875000   0.5000000   0.0000000), wk =   0.0071174
        k(  225) = (   0.3000000   0.5000000   0.0000000), wk =   0.0071174
        k(  226) = (   0.3125000   0.5000000   0.0000000), wk =   0.0071174
        k(  227) = (   0.3250000   0.5000000   0.0000000), wk =   0.0071174
        k(  228) = (   0.3375000   0.5000000   0.0000000), wk =   0.0071174
        k(  229) = (   0.3500000   0.5000000   0.0000000), wk =   0.0071174
        k(  230) = (   0.3625000   0.5000000   0.0000000), wk =   0.0071174
        k(  231) = (   0.3750000   0.5000000   0.0000000), wk =   0.0071174
        k(  232) = (   0.3875000   0.5000000   0.0000000), wk =   0.0071174
        k(  233) = (   0.4000000   0.5000000   0.0000000), wk =   0.0071174
        k(  234) = (   0.4125000   0.5000000   0.0000000), wk =   0.0071174
        k(  235) = (   0.4250000   0.5000000   0.0000000), wk =   0.0071174
        k(  236) = (   0.4375000   0.5000000   0.0000000), wk =   0.0071174
        k(  237) = (   0.4500000   0.5000000   0.0000000), wk =   0.0071174
        k(  238) = (   0.4625000   0.5000000   0.0000000), wk =   0.0071174
        k(  239) = (   0.4750000   0.5000000   0.0000000), wk =   0.0071174
        k(  240) = (   0.4875000   0.5000000   0.0000000), wk =   0.0071174
        k(  241) = (   0.5000000   0.5000000   0.0000000), wk =   0.0071174
        k(  242) = (   0.5000000   0.5000000   0.0125000), wk =   0.0071174
        k(  243) = (   0.5000000   0.5000000   0.0250000), wk =   0.0071174
        k(  244) = (   0.5000000   0.5000000   0.0375000), wk =   0.0071174
        k(  245) = (   0.5000000   0.5000000   0.0500000), wk =   0.0071174
        k(  246) = (   0.5000000   0.5000000   0.0625000), wk =   0.0071174
        k(  247) = (   0.5000000   0.5000000   0.0750000), wk =   0.0071174
        k(  248) = (   0.5000000   0.5000000   0.0875000), wk =   0.0071174
        k(  249) = (   0.5000000   0.5000000   0.1000000), wk =   0.0071174
        k(  250) = (   0.5000000   0.5000000   0.1125000), wk =   0.0071174
        k(  251) = (   0.5000000   0.5000000   0.1250000), wk =   0.0071174
        k(  252) = (   0.5000000   0.5000000   0.1375000), wk =   0.0071174
        k(  253) = (   0.5000000   0.5000000   0.1500000), wk =   0.0071174
        k(  254) = (   0.5000000   0.5000000   0.1625000), wk =   0.0071174
        k(  255) = (   0.5000000   0.5000000   0.1750000), wk =   0.0071174
        k(  256) = (   0.5000000   0.5000000   0.1875000), wk =   0.0071174
        k(  257) = (   0.5000000   0.5000000   0.2000000), wk =   0.0071174
        k(  258) = (   0.5000000   0.5000000   0.2125000), wk =   0.0071174
        k(  259) = (   0.5000000   0.5000000   0.2250000), wk =   0.0071174
        k(  260) = (   0.5000000   0.5000000   0.2375000), wk =   0.0071174
        k(  261) = (   0.5000000   0.5000000   0.2500000), wk =   0.0071174
        k(  262) = (   0.5000000   0.5000000   0.2625000), wk =   0.0071174
        k(  263) = (   0.5000000   0.5000000   0.2750000), wk =   0.0071174
        k(  264) = (   0.5000000   0.5000000   0.2875000), wk =   0.0071174
        k(  265) = (   0.5000000   0.5000000   0.3000000), wk =   0.0071174
        k(  266) = (   0.5000000   0.5000000   0.3125000), wk =   0.0071174
        k(  267) = (   0.5000000   0.5000000   0.3250000), wk =   0.0071174
        k(  268) = (   0.5000000   0.5000000   0.3375000), wk =   0.0071174
        k(  269) = (   0.5000000   0.5000000   0.3500000), wk =   0.0071174
        k(  270) = (   0.5000000   0.5000000   0.3625000), wk =   0.0071174
        k(  271) = (   0.5000000   0.5000000   0.3750000), wk =   0.0071174
        k(  272) = (   0.5000000   0.5000000   0.3875000), wk =   0.0071174
        k(  273) = (   0.5000000   0.5000000   0.4000000), wk =   0.0071174
        k(  274) = (   0.5000000   0.5000000   0.4125000), wk =   0.0071174
        k(  275) = (   0.5000000   0.5000000   0.4250000), wk =   0.0071174
        k(  276) = (   0.5000000   0.5000000   0.4375000), wk =   0.0071174
        k(  277) = (   0.5000000   0.5000000   0.4500000), wk =   0.0071174
        k(  278) = (   0.5000000   0.5000000   0.4625000), wk =   0.0071174
        k(  279) = (   0.5000000   0.5000000   0.4750000), wk =   0.0071174
        k(  280) = (   0.5000000   0.5000000   0.4875000), wk =   0.0071174
        k(  281) = (   0.5000000   0.5000000   0.5000000), wk =   0.0071174

                       cryst. coord.
        k(    1) = (   0.0000000   0.0000000   0.0000000), wk =   0.0071174
        k(    2) = (   0.0000000   0.0125000   0.0000000), wk =   0.0071174
        k(    3) = (   0.0000000   0.0250000   0.0000000), wk =   0.0071174
        k(    4) = (   0.0000000   0.0375000   0.0000000), wk =   0.0071174
        k(    5) = (   0.0000000   0.0500000   0.0000000), wk =   0.0071174
        k(    6) = (   0.0000000   0.0625000   0.0000000), wk =   0.0071174
        k(    7) = (   0.0000000   0.0750000   0.0000000), wk =   0.0071174
        k(    8) = (   0.0000000   0.0875000   0.0000000), wk =   0.0071174
        k(    9) = (   0.0000000   0.1000000   0.0000000), wk =   0.0071174
        k(   10) = (   0.0000000   0.1125000   0.0000000), wk =   0.0071174
        k(   11) = (   0.0000000   0.1250000   0.0000000), wk =   0.0071174
        k(   12) = (   0.0000000   0.1375000   0.0000000), wk =   0.0071174
        k(   13) = (   0.0000000   0.1500000   0.0000000), wk =   0.0071174
        k(   14) = (   0.0000000   0.1625000   0.0000000), wk =   0.0071174
        k(   15) = (   0.0000000   0.1750000   0.0000000), wk =   0.0071174
        k(   16) = (   0.0000000   0.1875000   0.0000000), wk =   0.0071174
        k(   17) = (   0.0000000   0.2000000   0.0000000), wk =   0.0071174
        k(   18) = (   0.0000000   0.2125000   0.0000000), wk =   0.0071174
        k(   19) = (   0.0000000   0.2250000   0.0000000), wk =   0.0071174
        k(   20) = (   0.0000000   0.2375000   0.0000000), wk =   0.0071174
        k(   21) = (   0.0000000   0.2500000   0.0000000), wk =   0.0071174
        k(   22) = (   0.0000000   0.2625000   0.0000000), wk =   0.0071174
        k(   23) = (   0.0000000   0.2750000   0.0000000), wk =   0.0071174
        k(   24) = (   0.0000000   0.2875000   0.0000000), wk =   0.0071174
        k(   25) = (   0.0000000   0.3000000   0.0000000), wk =   0.0071174
        k(   26) = (   0.0000000   0.3125000   0.0000000), wk =   0.0071174
        k(   27) = (   0.0000000   0.3250000   0.0000000), wk =   0.0071174
        k(   28) = (   0.0000000   0.3375000   0.0000000), wk =   0.0071174
        k(   29) = (   0.0000000   0.3500000   0.0000000), wk =   0.0071174
        k(   30) = (   0.0000000   0.3625000   0.0000000), wk =   0.0071174
        k(   31) = (   0.0000000   0.3750000   0.0000000), wk =   0.0071174
        k(   32) = (   0.0000000   0.3875000   0.0000000), wk =   0.0071174
        k(   33) = (   0.0000000   0.4000000   0.0000000), wk =   0.0071174
        k(   34) = (   0.0000000   0.4125000   0.0000000), wk =   0.0071174
        k(   35) = (   0.0000000   0.4250000   0.0000000), wk =   0.0071174
        k(   36) = (   0.0000000   0.4375000   0.0000000), wk =   0.0071174
        k(   37) = (   0.0000000   0.4500000   0.0000000), wk =   0.0071174
        k(   38) = (   0.0000000   0.4625000   0.0000000), wk =   0.0071174
        k(   39) = (   0.0000000   0.4750000   0.0000000), wk =   0.0071174
        k(   40) = (   0.0000000   0.4875000   0.0000000), wk =   0.0071174
        k(   41) = (   0.0000000   0.5000000   0.0000000), wk =   0.0071174
        k(   42) = (   0.0125000   0.5000000   0.0000000), wk =   0.0071174
        k(   43) = (   0.0250000   0.5000000   0.0000000), wk =   0.0071174
        k(   44) = (   0.0375000   0.5000000   0.0000000), wk =   0.0071174
        k(   45) = (   0.0500000   0.5000000   0.0000000), wk =   0.0071174
        k(   46) = (   0.0625000   0.5000000   0.0000000), wk =   0.0071174
        k(   47) = (   0.0750000   0.5000000   0.0000000), wk =   0.0071174
        k(   48) = (   0.0875000   0.5000000   0.0000000), wk =   0.0071174
        k(   49) = (   0.1000000   0.5000000   0.0000000), wk =   0.0071174
        k(   50) = (   0.1125000   0.5000000   0.0000000), wk =   0.0071174
        k(   51) = (   0.1250000   0.5000000   0.0000000), wk =   0.0071174
        k(   52) = (   0.1375000   0.5000000   0.0000000), wk =   0.0071174
        k(   53) = (   0.1500000   0.5000000   0.0000000), wk =   0.0071174
        k(   54) = (   0.1625000   0.5000000   0.0000000), wk =   0.0071174
        k(   55) = (   0.1750000   0.5000000   0.0000000), wk =   0.0071174
        k(   56) = (   0.1875000   0.5000000   0.0000000), wk =   0.0071174
        k(   57) = (   0.2000000   0.5000000   0.0000000), wk =   0.0071174
        k(   58) = (   0.2125000   0.5000000   0.0000000), wk =   0.0071174
        k(   59) = (   0.2250000   0.5000000   0.0000000), wk =   0.0071174
        k(   60) = (   0.2375000   0.5000000   0.0000000), wk =   0.0071174
        k(   61) = (   0.2500000   0.5000000   0.0000000), wk =   0.0071174
        k(   62) = (   0.2625000   0.5000000   0.0000000), wk =   0.0071174
        k(   63) = (   0.2750000   0.5000000   0.0000000), wk =   0.0071174
        k(   64) = (   0.2875000   0.5000000   0.0000000), wk =   0.0071174
        k(   65) = (   0.3000000   0.5000000   0.0000000), wk =   0.0071174
        k(   66) = (   0.3125000   0.5000000   0.0000000), wk =   0.0071174
        k(   67) = (   0.3250000   0.5000000   0.0000000), wk =   0.0071174
        k(   68) = (   0.3375000   0.5000000   0.0000000), wk =   0.0071174
        k(   69) = (   0.3500000   0.5000000   0.0000000), wk =   0.0071174
        k(   70) = (   0.3625000   0.5000000   0.0000000), wk =   0.0071174
        k(   71) = (   0.3750000   0.5000000   0.0000000), wk =   0.0071174
        k(   72) = (   0.3875000   0.5000000   0.0000000), wk =   0.0071174
        k(   73) = (   0.4000000   0.5000000   0.0000000), wk =   0.0071174
        k(   74) = (   0.4125000   0.5000000   0.0000000), wk =   0.0071174
        k(   75) = (   0.4250000   0.5000000   0.0000000), wk =   0.0071174
        k(   76) = (   0.4375000   0.5000000   0.0000000), wk =   0.0071174
        k(   77) = (   0.4500000   0.5000000   0.0000000), wk =   0.0071174
        k(   78) = (   0.4625000   0.5000000   0.0000000), wk =   0.0071174
        k(   79) = (   0.4750000   0.5000000   0.0000000), wk =   0.0071174
        k(   80) = (   0.4875000   0.5000000   0.0000000), wk =   0.0071174
        k(   81) = (   0.5000000   0.5000000   0.0000000), wk =   0.0071174
        k(   82) = (   0.4875000   0.4875000   0.0000000), wk =   0.0071174
        k(   83) = (   0.4750000   0.4750000   0.0000000), wk =   0.0071174
        k(   84) = (   0.4625000   0.4625000   0.0000000), wk =   0.0071174
        k(   85) = (   0.4500000   0.4500000   0.0000000), wk =   0.0071174
        k(   86) = (   0.4375000   0.4375000   0.0000000), wk =   0.0071174
        k(   87) = (   0.4250000   0.4250000   0.0000000), wk =   0.0071174
        k(   88) = (   0.4125000   0.4125000   0.0000000), wk =   0.0071174
        k(   89) = (   0.4000000   0.4000000   0.0000000), wk =   0.0071174
        k(   90) = (   0.3875000   0.3875000   0.0000000), wk =   0.0071174
        k(   91) = (   0.3750000   0.3750000   0.0000000), wk =   0.0071174
        k(   92) = (   0.3625000   0.3625000   0.0000000), wk =   0.0071174
        k(   93) = (   0.3500000   0.3500000   0.0000000), wk =   0.0071174
        k(   94) = (   0.3375000   0.3375000   0.0000000), wk =   0.0071174
        k(   95) = (   0.3250000   0.3250000   0.0000000), wk =   0.0071174
        k(   96) = (   0.3125000   0.3125000   0.0000000), wk =   0.0071174
        k(   97) = (   0.3000000   0.3000000   0.0000000), wk =   0.0071174
        k(   98) = (   0.2875000   0.2875000   0.0000000), wk =   0.0071174
        k(   99) = (   0.2750000   0.2750000   0.0000000), wk =   0.0071174
        k(  100) = (   0.2625000   0.2625000   0.0000000), wk =   0.0071174
        k(  101) = (   0.2500000   0.2500000   0.0000000), wk =   0.0071174
        k(  102) = (   0.2375000   0.2375000   0.0000000), wk =   0.0071174
        k(  103) = (   0.2250000   0.2250000   0.0000000), wk =   0.0071174
        k(  104) = (   0.2125000   0.2125000   0.0000000), wk =   0.0071174
        k(  105) = (   0.2000000   0.2000000   0.0000000), wk =   0.0071174
        k(  106) = (   0.1875000   0.1875000   0.0000000), wk =   0.0071174
        k(  107) = (   0.1750000   0.1750000   0.0000000), wk =   0.0071174
        k(  108) = (   0.1625000   0.1625000   0.0000000), wk =   0.0071174
        k(  109) = (   0.1500000   0.1500000   0.0000000), wk =   0.0071174
        k(  110) = (   0.1375000   0.1375000   0.0000000), wk =   0.0071174
        k(  111) = (   0.1250000   0.1250000   0.0000000), wk =   0.0071174
        k(  112) = (   0.1125000   0.1125000   0.0000000), wk =   0.0071174
        k(  113) = (   0.1000000   0.1000000   0.0000000), wk =   0.0071174
        k(  114) = (   0.0875000   0.0875000   0.0000000), wk =   0.0071174
        k(  115) = (   0.0750000   0.0750000   0.0000000), wk =   0.0071174
        k(  116) = (   0.0625000   0.0625000   0.0000000), wk =   0.0071174
        k(  117) = (   0.0500000   0.0500000   0.0000000), wk =   0.0071174
        k(  118) = (   0.0375000   0.0375000   0.0000000), wk =   0.0071174
        k(  119) = (   0.0250000   0.0250000   0.0000000), wk =   0.0071174
        k(  120) = (   0.0125000   0.0125000   0.0000000), wk =   0.0071174
        k(  121) = (   0.0000000   0.0000000   0.0000000), wk =   0.0071174
        k(  122) = (   0.0125000   0.0125000   0.0125000), wk =   0.0071174
        k(  123) = (   0.0250000   0.0250000   0.0250000), wk =   0.0071174
        k(  124) = (   0.0375000   0.0375000   0.0375000), wk =   0.0071174
        k(  125) = (   0.0500000   0.0500000   0.0500000), wk =   0.0071174
        k(  126) = (   0.0625000   0.0625000   0.0625000), wk =   0.0071174
        k(  127) = (   0.0750000   0.0750000   0.0750000), wk =   0.0071174
        k(  128) = (   0.0875000   0.0875000   0.0875000), wk =   0.0071174
        k(  129) = (   0.1000000   0.1000000   0.1000000), wk =   0.0071174
        k(  130) = (   0.1125000   0.1125000   0.1125000), wk =   0.0071174
        k(  131) = (   0.1250000   0.1250000   0.1250000), wk =   0.0071174
        k(  132) = (   0.1375000   0.1375000   0.1375000), wk =   0.0071174
        k(  133) = (   0.1500000   0.1500000   0.1500000), wk =   0.0071174
        k(  134) = (   0.1625000   0.1625000   0.1625000), wk =   0.0071174
        k(  135) = (   0.1750000   0.1750000   0.1750000), wk =   0.0071174
        k(  136) = (   0.1875000   0.1875000   0.1875000), wk =   0.0071174
        k(  137) = (   0.2000000   0.2000000   0.2000000), wk =   0.0071174
        k(  138) = (   0.2125000   0.2125000   0.2125000), wk =   0.0071174
        k(  139) = (   0.2250000   0.2250000   0.2250000), wk =   0.0071174
        k(  140) = (   0.2375000   0.2375000   0.2375000), wk =   0.0071174
        k(  141) = (   0.2500000   0.2500000   0.2500000), wk =   0.0071174
        k(  142) = (   0.2625000   0.2625000   0.2625000), wk =   0.0071174
        k(  143) = (   0.2750000   0.2750000   0.2750000), wk =   0.0071174
        k(  144) = (   0.2875000   0.2875000   0.2875000), wk =   0.0071174
        k(  145) = (   0.3000000   0.3000000   0.3000000), wk =   0.0071174
        k(  146) = (   0.3125000   0.3125000   0.3125000), wk =   0.0071174
        k(  147) = (   0.3250000   0.3250000   0.3250000), wk =   0.0071174
        k(  148) = (   0.3375000   0.3375000   0.3375000), wk =   0.0071174
        k(  149) = (   0.3500000   0.3500000   0.3500000), wk =   0.0071174
        k(  150) = (   0.3625000   0.3625000   0.3625000), wk =   0.0071174
        k(  151) = (   0.3750000   0.3750000   0.3750000), wk =   0.0071174
        k(  152) = (   0.3875000   0.3875000   0.3875000), wk =   0.0071174
        k(  153) = (   0.4000000   0.4000000   0.4000000), wk =   0.0071174
        k(  154) = (   0.4125000   0.4125000   0.4125000), wk =   0.0071174
        k(  155) = (   0.4250000   0.4250000   0.4250000), wk =   0.0071174
        k(  156) = (   0.4375000   0.4375000   0.4375000), wk =   0.0071174
        k(  157) = (   0.4500000   0.4500000   0.4500000), wk =   0.0071174
        k(  158) = (   0.4625000   0.4625000   0.4625000), wk =   0.0071174
        k(  159) = (   0.4750000   0.4750000   0.4750000), wk =   0.0071174
        k(  160) = (   0.4875000   0.4875000   0.4875000), wk =   0.0071174
        k(  161) = (   0.5000000   0.5000000   0.5000000), wk =   0.0071174
        k(  162) = (   0.4875000   0.5000000   0.4875000), wk =   0.0071174
        k(  163) = (   0.4750000   0.5000000   0.4750000), wk =   0.0071174
        k(  164) = (   0.4625000   0.5000000   0.4625000), wk =   0.0071174
        k(  165) = (   0.4500000   0.5000000   0.4500000), wk =   0.0071174
        k(  166) = (   0.4375000   0.5000000   0.4375000), wk =   0.0071174
        k(  167) = (   0.4250000   0.5000000   0.4250000), wk =   0.0071174
        k(  168) = (   0.4125000   0.5000000   0.4125000), wk =   0.0071174
        k(  169) = (   0.4000000   0.5000000   0.4000000), wk =   0.0071174
        k(  170) = (   0.3875000   0.5000000   0.3875000), wk =   0.0071174
        k(  171) = (   0.3750000   0.5000000   0.3750000), wk =   0.0071174
        k(  172) = (   0.3625000   0.5000000   0.3625000), wk =   0.0071174
        k(  173) = (   0.3500000   0.5000000   0.3500000), wk =   0.0071174
        k(  174) = (   0.3375000   0.5000000   0.3375000), wk =   0.0071174
        k(  175) = (   0.3250000   0.5000000   0.3250000), wk =   0.0071174
        k(  176) = (   0.3125000   0.5000000   0.3125000), wk =   0.0071174
        k(  177) = (   0.3000000   0.5000000   0.3000000), wk =   0.0071174
        k(  178) = (   0.2875000   0.5000000   0.2875000), wk =   0.0071174
        k(  179) = (   0.2750000   0.5000000   0.2750000), wk =   0.0071174
        k(  180) = (   0.2625000   0.5000000   0.2625000), wk =   0.0071174
        k(  181) = (   0.2500000   0.5000000   0.2500000), wk =   0.0071174
        k(  182) = (   0.2375000   0.5000000   0.2375000), wk =   0.0071174
        k(  183) = (   0.2250000   0.5000000   0.2250000), wk =   0.0071174
        k(  184) = (   0.2125000   0.5000000   0.2125000), wk =   0.0071174
        k(  185) = (   0.2000000   0.5000000   0.2000000), wk =   0.0071174
        k(  186) = (   0.1875000   0.5000000   0.1875000), wk =   0.0071174
        k(  187) = (   0.1750000   0.5000000   0.1750000), wk =   0.0071174
        k(  188) = (   0.1625000   0.5000000   0.1625000), wk =   0.0071174
        k(  189) = (   0.1500000   0.5000000   0.1500000), wk =   0.0071174
        k(  190) = (   0.1375000   0.5000000   0.1375000), wk =   0.0071174
        k(  191) = (   0.1250000   0.5000000   0.1250000), wk =   0.0071174
        k(  192) = (   0.1125000   0.5000000   0.1125000), wk =   0.0071174
        k(  193) = (   0.1000000   0.5000000   0.1000000), wk =   0.0071174
        k(  194) = (   0.0875000   0.5000000   0.0875000), wk =   0.0071174
        k(  195) = (   0.0750000   0.5000000   0.0750000), wk =   0.0071174
        k(  196) = (   0.0625000   0.5000000   0.0625000), wk =   0.0071174
        k(  197) = (   0.0500000   0.5000000   0.0500000), wk =   0.0071174
        k(  198) = (   0.0375000   0.5000000   0.0375000), wk =   0.0071174
        k(  199) = (   0.0250000   0.5000000   0.0250000), wk =   0.0071174
        k(  200) = (   0.0125000   0.5000000   0.0125000), wk =   0.0071174
        k(  201) = (   0.0000000   0.5000000   0.0000000), wk =   0.0071174
        k(  202) = (   0.0125000   0.5000000   0.0000000), wk =   0.0071174
        k(  203) = (   0.0250000   0.5000000   0.0000000), wk =   0.0071174
        k(  204) = (   0.0375000   0.5000000   0.0000000), wk =   0.0071174
        k(  205) = (   0.0500000   0.5000000   0.0000000), wk =   0.0071174
        k(  206) = (   0.0625000   0.5000000   0.0000000), wk =   0.0071174
        k(  207) = (   0.0750000   0.5000000   0.0000000), wk =   0.0071174
        k(  208) = (   0.0875000   0.5000000   0.0000000), wk =   0.0071174
        k(  209) = (   0.1000000   0.5000000   0.0000000), wk =   0.0071174
        k(  210) = (   0.1125000   0.5000000   0.0000000), wk =   0.0071174
        k(  211) = (   0.1250000   0.5000000   0.0000000), wk =   0.0071174
        k(  212) = (   0.1375000   0.5000000   0.0000000), wk =   0.0071174
        k(  213) = (   0.1500000   0.5000000   0.0000000), wk =   0.0071174
        k(  214) = (   0.1625000   0.5000000   0.0000000), wk =   0.0071174
        k(  215) = (   0.1750000   0.5000000   0.0000000), wk =   0.0071174
        k(  216) = (   0.1875000   0.5000000   0.0000000), wk =   0.0071174
        k(  217) = (   0.2000000   0.5000000   0.0000000), wk =   0.0071174
        k(  218) = (   0.2125000   0.5000000   0.0000000), wk =   0.0071174
        k(  219) = (   0.2250000   0.5000000   0.0000000), wk =   0.0071174
        k(  220) = (   0.2375000   0.5000000   0.0000000), wk =   0.0071174
        k(  221) = (   0.2500000   0.5000000   0.0000000), wk =   0.0071174
        k(  222) = (   0.2625000   0.5000000   0.0000000), wk =   0.0071174
        k(  223) = (   0.2750000   0.5000000   0.0000000), wk =   0.0071174
        k(  224) = (   0.2875000   0.5000000   0.0000000), wk =   0.0071174
        k(  225) = (   0.3000000   0.5000000   0.0000000), wk =   0.0071174
        k(  226) = (   0.3125000   0.5000000   0.0000000), wk =   0.0071174
        k(  227) = (   0.3250000   0.5000000   0.0000000), wk =   0.0071174
        k(  228) = (   0.3375000   0.5000000   0.0000000), wk =   0.0071174
        k(  229) = (   0.3500000   0.5000000   0.0000000), wk =   0.0071174
        k(  230) = (   0.3625000   0.5000000   0.0000000), wk =   0.0071174
        k(  231) = (   0.3750000   0.5000000   0.0000000), wk =   0.0071174
        k(  232) = (   0.3875000   0.5000000   0.0000000), wk =   0.0071174
        k(  233) = (   0.4000000   0.5000000   0.0000000), wk =   0.0071174
        k(  234) = (   0.4125000   0.5000000   0.0000000), wk =   0.0071174
        k(  235) = (   0.4250000   0.5000000   0.0000000), wk =   0.0071174
        k(  236) = (   0.4375000   0.5000000   0.0000000), wk =   0.0071174
        k(  237) = (   0.4500000   0.5000000   0.0000000), wk =   0.0071174
        k(  238) = (   0.4625000   0.5000000   0.0000000), wk =   0.0071174
        k(  239) = (   0.4750000   0.5000000   0.0000000), wk =   0.0071174
        k(  240) = (   0.4875000   0.5000000   0.0000000), wk =   0.0071174
        k(  241) = (   0.5000000   0.5000000   0.0000000), wk =   0.0071174
        k(  242) = (   0.5000000   0.5000000   0.0125000), wk =   0.0071174
        k(  243) = (   0.5000000   0.5000000   0.0250000), wk =   0.0071174
        k(  244) = (   0.5000000   0.5000000   0.0375000), wk =   0.0071174
        k(  245) = (   0.5000000   0.5000000   0.0500000), wk =   0.0071174
        k(  246) = (   0.5000000   0.5000000   0.0625000), wk =   0.0071174
        k(  247) = (   0.5000000   0.5000000   0.0750000), wk =   0.0071174
        k(  248) = (   0.5000000   0.5000000   0.0875000), wk =   0.0071174
        k(  249) = (   0.5000000   0.5000000   0.1000000), wk =   0.0071174
        k(  250) = (   0.5000000   0.5000000   0.1125000), wk =   0.0071174
        k(  251) = (   0.5000000   0.5000000   0.1250000), wk =   0.0071174
        k(  252) = (   0.5000000   0.5000000   0.1375000), wk =   0.0071174
        k(  253) = (   0.5000000   0.5000000   0.1500000), wk =   0.0071174
        k(  254) = (   0.5000000   0.5000000   0.1625000), wk =   0.0071174
        k(  255) = (   0.5000000   0.5000000   0.1750000), wk =   0.0071174
        k(  256) = (   0.5000000   0.5000000   0.1875000), wk =   0.0071174
        k(  257) = (   0.5000000   0.5000000   0.2000000), wk =   0.0071174
        k(  258) = (   0.5000000   0.5000000   0.2125000), wk =   0.0071174
        k(  259) = (   0.5000000   0.5000000   0.2250000), wk =   0.0071174
        k(  260) = (   0.5000000   0.5000000   0.2375000), wk =   0.0071174
        k(  261) = (   0.5000000   0.5000000   0.2500000), wk =   0.0071174
        k(  262) = (   0.5000000   0.5000000   0.2625000), wk =   0.0071174
        k(  263) = (   0.5000000   0.5000000   0.2750000), wk =   0.0071174
        k(  264) = (   0.5000000   0.5000000   0.2875000), wk =   0.0071174
        k(  265) = (   0.5000000   0.5000000   0.3000000), wk =   0.0071174
        k(  266) = (   0.5000000   0.5000000   0.3125000), wk =   0.0071174
        k(  267) = (   0.5000000   0.5000000   0.3250000), wk =   0.0071174
        k(  268) = (   0.5000000   0.5000000   0.3375000), wk =   0.0071174
        k(  269) = (   0.5000000   0.5000000   0.3500000), wk =   0.0071174
        k(  270) = (   0.5000000   0.5000000   0.3625000), wk =   0.0071174
        k(  271) = (   0.5000000   0.5000000   0.3750000), wk =   0.0071174
        k(  272) = (   0.5000000   0.5000000   0.3875000), wk =   0.0071174
        k(  273) = (   0.5000000   0.5000000   0.4000000), wk =   0.0071174
        k(  274) = (   0.5000000   0.5000000   0.4125000), wk =   0.0071174
        k(  275) = (   0.5000000   0.5000000   0.4250000), wk =   0.0071174
        k(  276) = (   0.5000000   0.5000000   0.4375000), wk =   0.0071174
        k(  277) = (   0.5000000   0.5000000   0.4500000), wk =   0.0071174
        k(  278) = (   0.5000000   0.5000000   0.4625000), wk =   0.0071174
        k(  279) = (   0.5000000   0.5000000   0.4750000), wk =   0.0071174
        k(  280) = (   0.5000000   0.5000000   0.4875000), wk =   0.0071174
        k(  281) = (   0.5000000   0.5000000   0.5000000), wk =   0.0071174

     Dense  grid:     6979 G-vectors     FFT dimensions: (  24,  24,  24)

     Smooth grid:     3791 G-vectors     FFT dimensions: (  20,  20,  20)

     Largest allocated arrays     est. size (Mb)     dimensions
        Kohn-Sham Wavefunctions         0.09 Mb     (    488,   12)
        NL pseudopotentials             0.13 Mb     (    488,   18)
        Each V/rho on FFT grid          0.21 Mb     (  13824)
        Each G-vector array             0.05 Mb     (   6979)
        G-vector shells                 0.00 Mb     (    119)
     Largest temporary arrays     est. size (Mb)     dimensions
        Auxiliary wavefunctions         0.36 Mb     (    488,   48)
        Each subspace H/S matrix        0.04 Mb     (  48,  48)
        Each <psi_i|beta_j> matrix      0.00 Mb     (     18,   12)

     Check: negative/imaginary core charge=   -0.000214    0.000000

     The potential is recalculated from file :
     ../tmp/fe.save/charge-density.dat

     Starting wfc are   13 randomized atomic wfcs

     total cpu time spent up to now is        1.4 secs

     per-process dynamical memory:     9.7 Mb

     Band Structure Calculation
     Davidson diagonalization with overlap

     Computing kpt #:     1
     total cpu time spent up to now is        1.5 secs

     Computing kpt #:     2
     total cpu time spent up to now is        1.6 secs

     Computing kpt #:     3
     total cpu time spent up to now is        1.6 secs

     Computing kpt #:     4
     total cpu time spent up to now is        1.7 secs

     Computing kpt #:     5
     total cpu time spent up to now is        1.7 secs

     Computing kpt #:     6
     total cpu time spent up to now is        1.8 secs

     Computing kpt #:     7
     total cpu time spent up to now is        1.8 secs

     Computing kpt #:     8
     total cpu time spent up to now is        1.9 secs

     Computing kpt #:     9
     total cpu time spent up to now is        2.0 secs

     Computing kpt #:    10
     total cpu time spent up to now is        2.0 secs

     Computing kpt #:    11
     total cpu time spent up to now is        2.1 secs

     Computing kpt #:    12
     total cpu time spent up to now is        2.1 secs

     Computing kpt #:    13
     total cpu time spent up to now is        2.2 secs

     Computing kpt #:    14
     total cpu time spent up to now is        2.2 secs

     Computing kpt #:    15
     total cpu time spent up to now is        2.3 secs

     Computing kpt #:    16
     total cpu time spent up to now is        2.3 secs

     Computing kpt #:    17
     total cpu time spent up to now is        2.4 secs

     Computing kpt #:    18
     total cpu time spent up to now is        2.5 secs

     Computing kpt #:    19
     total cpu time spent up to now is        2.5 secs

     Computing kpt #:    20
     total cpu time spent up to now is        2.6 secs

     Computing kpt #:    21
     total cpu time spent up to now is        2.7 secs

     Computing kpt #:    22
     total cpu time spent up to now is        2.7 secs

     Computing kpt #:    23
     total cpu time spent up to now is        2.8 secs

     Computing kpt #:    24
     total cpu time spent up to now is        2.8 secs

     Computing kpt #:    25
     total cpu time spent up to now is        2.9 secs

     Computing kpt #:    26
     total cpu time spent up to now is        3.0 secs

     Computing kpt #:    27
     total cpu time spent up to now is        3.1 secs

     Computing kpt #:    28
     total cpu time spent up to now is        3.1 secs

     Computing kpt #:    29
     total cpu time spent up to now is        3.2 secs

     Computing kpt #:    30
     total cpu time spent up to now is        3.2 secs

     Computing kpt #:    31
     total cpu time spent up to now is        3.3 secs

     Computing kpt #:    32
     total cpu time spent up to now is        3.4 secs

     Computing kpt #:    33
     total cpu time spent up to now is        3.4 secs

     Computing kpt #:    34
     total cpu time spent up to now is        3.5 secs

     Computing kpt #:    35
     total cpu time spent up to now is        3.6 secs

     Computing kpt #:    36
     total cpu time spent up to now is        3.6 secs

     Computing kpt #:    37
     total cpu time spent up to now is        3.7 secs

     Computing kpt #:    38
     total cpu time spent up to now is        3.7 secs

     Computing kpt #:    39
     total cpu time spent up to now is        3.8 secs

     Computing kpt #:    40
     total cpu time spent up to now is        3.8 secs

     Computing kpt #:    41
     total cpu time spent up to now is        3.9 secs

     Computing kpt #:    42
     total cpu time spent up to now is        4.0 secs

     Computing kpt #:    43
     total cpu time spent up to now is        4.1 secs

     Computing kpt #:    44
     total cpu time spent up to now is        4.1 secs

     Computing kpt #:    45
     total cpu time spent up to now is        4.2 secs

     Computing kpt #:    46
     total cpu time spent up to now is        4.2 secs

     Computing kpt #:    47
     total cpu time spent up to now is        4.3 secs

     Computing kpt #:    48
     total cpu time spent up to now is        4.4 secs

     Computing kpt #:    49
     total cpu time spent up to now is        4.4 secs

     Computing kpt #:    50
     total cpu time spent up to now is        4.5 secs

     Computing kpt #:    51
     total cpu time spent up to now is        4.5 secs

     Computing kpt #:    52
     total cpu time spent up to now is        4.6 secs

     Computing kpt #:    53
     total cpu time spent up to now is        4.7 secs

     Computing kpt #:    54
     total cpu time spent up to now is        4.7 secs

     Computing kpt #:    55
     total cpu time spent up to now is        4.8 secs

     Computing kpt #:    56
     total cpu time spent up to now is        4.8 secs

     Computing kpt #:    57
     total cpu time spent up to now is        4.9 secs

     Computing kpt #:    58
     total cpu time spent up to now is        5.0 secs

     Computing kpt #:    59
     total cpu time spent up to now is        5.0 secs

     Computing kpt #:    60
     total cpu time spent up to now is        5.1 secs

     Computing kpt #:    61
     total cpu time spent up to now is        5.1 secs

     Computing kpt #:    62
     total cpu time spent up to now is        5.2 secs

     Computing kpt #:    63
     total cpu time spent up to now is        5.2 secs

     Computing kpt #:    64
     total cpu time spent up to now is        5.3 secs

     Computing kpt #:    65
     total cpu time spent up to now is        5.4 secs

     Computing kpt #:    66
     total cpu time spent up to now is        5.4 secs

     Computing kpt #:    67
     total cpu time spent up to now is        5.5 secs

     Computing kpt #:    68
     total cpu time spent up to now is        5.5 secs

     Computing kpt #:    69
     total cpu time spent up to now is        5.6 secs

     Computing kpt #:    70
     total cpu time spent up to now is        5.6 secs

     Computing kpt #:    71
     total cpu time spent up to now is        5.7 secs

     Computing kpt #:    72
     total cpu time spent up to now is        5.8 secs

     Computing kpt #:    73
     total cpu time spent up to now is        5.8 secs

     Computing kpt #:    74
     total cpu time spent up to now is        5.9 secs

     Computing kpt #:    75
     total cpu time spent up to now is        5.9 secs

     Computing kpt #:    76
     total cpu time spent up to now is        6.0 secs

     Computing kpt #:    77
     total cpu time spent up to now is        6.0 secs

     Computing kpt #:    78
     total cpu time spent up to now is        6.1 secs

     Computing kpt #:    79
     total cpu time spent up to now is        6.1 secs

     Computing kpt #:    80
     total cpu time spent up to now is        6.2 secs

     Computing kpt #:    81
     total cpu time spent up to now is        6.3 secs

     Computing kpt #:    82
     total cpu time spent up to now is        6.3 secs

     Computing kpt #:    83
     total cpu time spent up to now is        6.4 secs

     Computing kpt #:    84
     total cpu time spent up to now is        6.4 secs

     Computing kpt #:    85
     total cpu time spent up to now is        6.5 secs

     Computing kpt #:    86
     total cpu time spent up to now is        6.5 secs

     Computing kpt #:    87
     total cpu time spent up to now is        6.6 secs

     Computing kpt #:    88
     total cpu time spent up to now is        6.6 secs

     Computing kpt #:    89
     total cpu time spent up to now is        6.7 secs

     Computing kpt #:    90
     total cpu time spent up to now is        6.8 secs

     Computing kpt #:    91
     total cpu time spent up to now is        6.8 secs

     Computing kpt #:    92
     total cpu time spent up to now is        6.9 secs

     Computing kpt #:    93
     total cpu time spent up to now is        7.0 secs

     Computing kpt #:    94
     total cpu time spent up to now is        7.0 secs

     Computing kpt #:    95
     total cpu time spent up to now is        7.1 secs

     Computing kpt #:    96
     total cpu time spent up to now is        7.1 secs

     Computing kpt #:    97
     total cpu time spent up to now is        7.2 secs

     Computing kpt #:    98
     total cpu time spent up to now is        7.2 secs

     Computing kpt #:    99
     total cpu time spent up to now is        7.3 secs

     Computing kpt #:   100
     total cpu time spent up to now is        7.3 secs

     Computing kpt #:   101
     total cpu time spent up to now is        7.4 secs

     Computing kpt #:   102
     total cpu time spent up to now is        7.4 secs

     Computing kpt #:   103
     total cpu time spent up to now is        7.5 secs

     Computing kpt #:   104
     total cpu time spent up to now is        7.6 secs

     Computing kpt #:   105
     total cpu time spent up to now is        7.6 secs

     Computing kpt #:   106
     total cpu time spent up to now is        7.7 secs

     Computing kpt #:   107
     total cpu time spent up to now is        7.7 secs

     Computing kpt #:   108
     total cpu time spent up to now is        7.8 secs

     Computing kpt #:   109
     total cpu time spent up to now is        7.8 secs

     Computing kpt #:   110
     total cpu time spent up to now is        7.9 secs

     Computing kpt #:   111
     total cpu time spent up to now is        8.0 secs

     Computing kpt #:   112
     total cpu time spent up to now is        8.0 secs

     Computing kpt #:   113
     total cpu time spent up to now is        8.1 secs

     Computing kpt #:   114
     total cpu time spent up to now is        8.1 secs

     Computing kpt #:   115
     total cpu time spent up to now is        8.2 secs

     Computing kpt #:   116
     total cpu time spent up to now is        8.3 secs

     Computing kpt #:   117
     total cpu time spent up to now is        8.3 secs

     Computing kpt #:   118
     total cpu time spent up to now is        8.4 secs

     Computing kpt #:   119
     total cpu time spent up to now is        8.4 secs

     Computing kpt #:   120
     total cpu time spent up to now is        8.5 secs

     Computing kpt #:   121
     total cpu time spent up to now is        8.6 secs

     Computing kpt #:   122
     total cpu time spent up to now is        8.6 secs

     Computing kpt #:   123
     total cpu time spent up to now is        8.7 secs

     Computing kpt #:   124
     total cpu time spent up to now is        8.8 secs

     Computing kpt #:   125
     total cpu time spent up to now is        8.8 secs

     Computing kpt #:   126
     total cpu time spent up to now is        8.9 secs

     Computing kpt #:   127
     total cpu time spent up to now is        9.0 secs

     Computing kpt #:   128
     total cpu time spent up to now is        9.0 secs

     Computing kpt #:   129
     total cpu time spent up to now is        9.1 secs

     Computing kpt #:   130
     total cpu time spent up to now is        9.1 secs

     Computing kpt #:   131
     total cpu time spent up to now is        9.2 secs

     Computing kpt #:   132
     total cpu time spent up to now is        9.2 secs

     Computing kpt #:   133
     total cpu time spent up to now is        9.3 secs

     Computing kpt #:   134
     total cpu time spent up to now is        9.4 secs

     Computing kpt #:   135
     total cpu time spent up to now is        9.4 secs

     Computing kpt #:   136
     total cpu time spent up to now is        9.5 secs

     Computing kpt #:   137
     total cpu time spent up to now is        9.5 secs

     Computing kpt #:   138
     total cpu time spent up to now is        9.6 secs

     Computing kpt #:   139
     total cpu time spent up to now is        9.7 secs

     Computing kpt #:   140
     total cpu time spent up to now is        9.7 secs

     Computing kpt #:   141
     total cpu time spent up to now is        9.8 secs

     Computing kpt #:   142
     total cpu time spent up to now is        9.8 secs

     Computing kpt #:   143
[...]
    17.6371  22.9814  24.2814  35.2610

          k = 0.2375 0.5000 0.2375     band energies (ev):

   -69.4242 -35.8795 -35.5281 -35.5147  13.9634  15.5168  15.8603  16.2224
    17.5584  22.5886  24.1022  35.7004

          k = 0.2250 0.5000 0.2250     band energies (ev):

   -69.4309 -35.8857 -35.5074 -35.4942  14.0098  15.6285  15.8105  16.0426
    17.5283  22.2029  23.9448  36.1514

          k = 0.2125 0.5000 0.2125     band energies (ev):

   -69.4375 -35.8919 -35.4867 -35.4739  14.0652  15.7099  15.7398  15.8700
    17.5449  21.8243  23.8076  36.6132

          k = 0.2000 0.5000 0.2000     band energies (ev):

   -69.4439 -35.8980 -35.4662 -35.4540  14.1299  15.5696  15.7051  15.8500
    17.5983  21.4530  23.6888  37.0853

          k = 0.1875 0.5000 0.1875     band energies (ev):

   -69.4503 -35.9040 -35.4461 -35.4345  14.2043  15.4031  15.5483  15.9582
    17.6762  21.0892  23.5870  37.5668

          k = 0.1750 0.5000 0.1750     band energies (ev):

   -69.4564 -35.9098 -35.4265 -35.4157  14.2885  15.2219  15.4002  16.0639
    17.7682  20.7330  23.5004  38.0448

          k = 0.1625 0.5000 0.1625     band energies (ev):

   -69.4623 -35.9153 -35.4074 -35.3975  14.3825  15.0347  15.2609  16.1661
    17.8667  20.3846  23.4277  38.2579

          k = 0.1500 0.5000 0.1500     band energies (ev):

   -69.4679 -35.9206 -35.3891 -35.3802  14.4866  14.8478  15.1308  16.2643
    17.9665  20.0441  23.3672  38.4808

          k = 0.1375 0.5000 0.1375     band energies (ev):

   -69.4732 -35.9257 -35.3718 -35.3638  14.6007  14.6657  15.0103  16.3577
    18.0638  19.7116  23.3176  38.7126

          k = 0.1250 0.5000 0.1250     band energies (ev):

   -69.4782 -35.9304 -35.3553 -35.3485  14.4919  14.7249  14.8995  16.4456
    18.1564  19.3876  23.2776  38.9519

          k = 0.1125 0.5000 0.1125     band energies (ev):

   -69.4828 -35.9348 -35.3401 -35.3343  14.3289  14.7986  14.8591  16.5273
    18.2424  19.0722  23.2458  39.1971

          k = 0.1000 0.5000 0.1000     band energies (ev):

   -69.4870 -35.9387 -35.3261 -35.3214  14.1788  14.7079  15.0031  16.6023
    18.3208  18.7656  23.2211  39.4454

          k = 0.0875 0.5000 0.0875     band energies (ev):

   -69.4907 -35.9423 -35.3135 -35.3097  14.0432  14.6275  15.1567  16.6699
    18.3907  18.4683  23.2023  39.6934

          k = 0.0750 0.5000 0.0750     band energies (ev):

   -69.4940 -35.9455 -35.3023 -35.2995  13.9235  14.5576  15.3194  16.7297
    18.1809  18.4517  23.1883  39.9361

          k = 0.0625 0.5000 0.0625     band energies (ev):

   -69.4969 -35.9482 -35.2927 -35.2907  13.8206  14.4982  15.4904  16.7811
    17.9042  18.5034  23.1782  40.1672

          k = 0.0500 0.5000 0.0500     band energies (ev):

   -69.4992 -35.9504 -35.2847 -35.2834  13.7353  14.4495  15.6684  16.8237
    17.6396  18.5458  23.1712  40.3786

          k = 0.0375 0.5000 0.0375     band energies (ev):

   -69.5011 -35.9522 -35.2785 -35.2777  13.6684  14.4115  15.8502  16.8573
    17.3904  18.5788  23.1664  40.5604

          k = 0.0250 0.5000 0.0250     band energies (ev):

   -69.5024 -35.9535 -35.2740 -35.2736  13.6203  14.3843  16.0287  16.8814
    17.1637  18.6023  23.1635  40.7016

          k = 0.0125 0.5000 0.0125     band energies (ev):

   -69.5032 -35.9542 -35.2713 -35.2712  13.5912  14.3680  16.1826  16.8960
    16.9808  18.6164  23.1619  40.7917

          k = 0.0000 0.5000 0.0000     band energies (ev):

   -69.5034 -35.9545 -35.2704 -35.2704  13.5816  14.3626  16.2530  16.9008
    16.9008  18.6211  23.1614  40.8227

          k = 0.0125 0.5000 0.0000     band energies (ev):

   -69.5033 -35.9544 -35.2713 -35.2703  13.5864  14.3653  16.2157  16.9013
    16.9400  18.6187  23.1616  40.8070

          k = 0.0250 0.5000 0.0000     band energies (ev):

   -69.5029 -35.9540 -35.2741 -35.2700  13.6008  14.3736  16.1227  16.9028
    17.0387  18.6117  23.1624  40.7584

          k = 0.0375 0.5000 0.0000     band energies (ev):

   -69.5023 -35.9533 -35.2788 -35.2696  13.6245  14.3876  16.0017  16.9053
    17.1691  18.6001  23.1636  40.6735

          k = 0.0500 0.5000 0.0000     band energies (ev):

   -69.5013 -35.9525 -35.2854 -35.2691  13.6570  14.4078  15.8683  16.9088
    17.3159  18.5839  23.1653  40.5473

          k = 0.0625 0.5000 0.0000     band energies (ev):

   -69.5002 -35.9513 -35.2937 -35.2684  13.6974  14.4348  15.7294  16.9132
    17.4720  18.5633  23.1675  40.3753

          k = 0.0750 0.5000 0.0000     band energies (ev):

   -69.4987 -35.9500 -35.3038 -35.2675  13.7447  14.4695  15.5885  16.9185
    17.6341  18.5385  23.1701  40.1554

          k = 0.0875 0.5000 0.0000     band energies (ev):

   -69.4971 -35.9484 -35.3156 -35.2665  13.7977  14.5130  15.4472  16.9247
    17.8007  18.5097  23.1732  39.8893

          k = 0.1000 0.5000 0.0000     band energies (ev):

   -69.4952 -35.9466 -35.3289 -35.2654  13.8546  14.5665  15.3065  16.9318
    17.9708  18.4770  23.1766  39.5825

          k = 0.1125 0.5000 0.0000     band energies (ev):

   -69.4931 -35.9446 -35.3438 -35.2641  13.9137  14.6315  15.1671  16.9397
    18.1438  18.4408  23.1804  39.2425

          k = 0.1250 0.5000 0.0000     band energies (ev):

   -69.4908 -35.9424 -35.3601 -35.2627  13.9732  14.7094  15.0295  16.9484
    18.3195  18.4013  23.1846  38.8770

          k = 0.1375 0.5000 0.0000     band energies (ev):

   -69.4883 -35.9400 -35.3777 -35.2612  14.0317  14.8012  14.8939  16.9578
    18.3588  18.4976  23.1890  38.4930

          k = 0.1500 0.5000 0.0000     band energies (ev):

   -69.4856 -35.9374 -35.3964 -35.2597  14.0881  14.7607  14.9076  16.9679
    18.3136  18.6779  23.1937  38.0964

          k = 0.1625 0.5000 0.0000     band energies (ev):

   -69.4828 -35.9347 -35.4163 -35.2580  14.1419  14.6300  15.0284  16.9786
    18.2661  18.8604  23.1985  37.6918

          k = 0.1750 0.5000 0.0000     band energies (ev):

   -69.4798 -35.9319 -35.4371 -35.2562  14.1929  14.5022  15.1632  16.9898
    18.2165  19.0449  23.2035  37.2826

          k = 0.1875 0.5000 0.0000     band energies (ev):

   -69.4767 -35.9289 -35.4587 -35.2543  14.2415  14.3774  15.3112  17.0015
    18.1652  19.2314  23.2086  36.8716

          k = 0.2000 0.5000 0.0000     band energies (ev):

   -69.4735 -35.9259 -35.4810 -35.2524  14.2557  14.2880  15.4713  17.0136
    18.1126  19.4197  23.2137  36.4609

          k = 0.2125 0.5000 0.0000     band energies (ev):

   -69.4702 -35.9227 -35.5039 -35.2505  14.1374  14.3326  15.6425  17.0261
    18.0590  19.6098  23.2188  36.0523

          k = 0.2250 0.5000 0.0000     band energies (ev):

   -69.4669 -35.9195 -35.5271 -35.2485  14.0227  14.3757  15.8236  17.0388
    18.0048  19.8013  23.2237  35.6470

          k = 0.2375 0.5000 0.0000     band energies (ev):

   -69.4635 -35.9163 -35.5506 -35.2464  13.9116  14.4175  16.0135  17.0517
    17.9503  19.9944  23.2284  35.2462

          k = 0.2500 0.5000 0.0000     band energies (ev):

   -69.4601 -35.9130 -35.5742 -35.2444  13.8045  14.4581  16.2112  17.0647
    17.8958  20.1887  23.2329  34.8508

          k = 0.2625 0.5000 0.0000     band energies (ev):

   -69.4567 -35.9098 -35.5978 -35.2424  13.7014  14.4977  16.4156  17.0777
    17.8418  20.3840  23.2369  34.4619

          k = 0.2750 0.5000 0.0000     band energies (ev):

   -69.4533 -35.9065 -35.6211 -35.2403  13.6025  14.5362  16.6256  17.0907
    17.7884  20.5801  23.2405  34.0800

          k = 0.2875 0.5000 0.0000     band energies (ev):

   -69.4500 -35.9033 -35.6442 -35.2383  13.5079  14.5737  16.8399  17.1035
    17.7360  20.7765  23.2435  33.7062

          k = 0.3000 0.5000 0.0000     band energies (ev):

   -69.4467 -35.9002 -35.6667 -35.2363  13.4179  14.6100  17.0574  17.1162
    17.6849  20.9729  23.2458  33.3410

          k = 0.3125 0.5000 0.0000     band energies (ev):

   -69.4435 -35.8971 -35.6887 -35.2344  13.3326  14.6450  17.1285  17.2769
    17.6355  21.1688  23.2474  32.9855

          k = 0.3250 0.5000 0.0000     band energies (ev):

   -69.4404 -35.8941 -35.7099 -35.2326  13.2520  14.6787  17.1404  17.4968
    17.5879  21.3634  23.2480  32.6404

          k = 0.3375 0.5000 0.0000     band energies (ev):

   -69.4374 -35.8913 -35.7303 -35.2308  13.1764  14.7109  17.1519  17.5425
    17.7158  21.5561  23.2478  32.3068

          k = 0.3500 0.5000 0.0000     band energies (ev):

   -69.4345 -35.8886 -35.7497 -35.2291  13.1058  14.7415  17.1629  17.4994
    17.9320  21.7460  23.2466  31.9858

          k = 0.3625 0.5000 0.0000     band energies (ev):

   -69.4318 -35.8860 -35.7679 -35.2275  13.0404  14.7703  17.1733  17.4589
    18.1439  21.9320  23.2443  31.6785

          k = 0.3750 0.5000 0.0000     band energies (ev):

   -69.4293 -35.8836 -35.7850 -35.2260  12.9803  14.7972  17.1830  17.4213
    18.3493  22.1128  23.2409  31.3866

          k = 0.3875 0.5000 0.0000     band energies (ev):

   -69.4270 -35.8814 -35.8007 -35.2246  12.9257  14.8221  17.1920  17.3866
    18.5463  22.2868  23.2365  31.1116

          k = 0.4000 0.5000 0.0000     band energies (ev):

   -69.4249 -35.8793 -35.8151 -35.2233  12.8765  14.8447  17.2003  17.3552
    18.7325  22.4524  23.2312  30.8555

          k = 0.4125 0.5000 0.0000     band energies (ev):

   -69.4229 -35.8775 -35.8280 -35.2222  12.8329  14.8651  17.2077  17.3270
    18.9055  22.6074  23.2251  30.6203

          k = 0.4250 0.5000 0.0000     band energies (ev):

   -69.4213 -35.8759 -35.8393 -35.2212  12.7949  14.8829  17.2142  17.3024
    19.0628  22.7495  23.2185  30.4085

          k = 0.4375 0.5000 0.0000     band energies (ev):

   -69.4198 -35.8745 -35.8490 -35.2203  12.7627  14.8983  17.2198  17.2813
    19.2017  22.8763  23.2118  30.2226

          k = 0.4500 0.5000 0.0000     band energies (ev):

   -69.4186 -35.8734 -35.8570 -35.2196  12.7362  14.9109  17.2244  17.2639
    19.3198  22.9850  23.2054  30.0655

          k = 0.4625 0.5000 0.0000     band energies (ev):

   -69.4177 -35.8725 -35.8632 -35.2191  12.7156  14.9209  17.2280  17.2503
    19.4146  23.0731  23.1997  29.9397

          k = 0.4750 0.5000 0.0000     band energies (ev):

   -69.4170 -35.8719 -35.8677 -35.2187  12.7008  14.9280  17.2306  17.2405
    19.4840  23.1382  23.1952  29.8478

          k = 0.4875 0.5000 0.0000     band energies (ev):

   -69.4166 -35.8715 -35.8704 -35.2184  12.6920  14.9323  17.2322  17.2347
    19.5264  23.1780  23.1923  29.7918

          k = 0.5000 0.5000 0.0000     band energies (ev):

   -69.4165 -35.8713 -35.8713 -35.2183  12.6890  14.9338  17.2327  17.2327
    19.5406  23.1915  23.1915  29.7730

          k = 0.5000 0.5000 0.0125     band energies (ev):

   -69.4164 -35.8712 -35.8712 -35.2192  12.6909  14.9396  17.2243  17.2243
    19.5407  23.2032  23.2032  29.7733

          k = 0.5000 0.5000 0.0250     band energies (ev):

   -69.4160 -35.8709 -35.8709 -35.2220  12.6964  14.9572  17.1995  17.1995
    19.5411  23.2382  23.2382  29.7743

          k = 0.5000 0.5000 0.0375     band energies (ev):

   -69.4153 -35.8703 -35.8703 -35.2265  12.7057  14.9864  17.1589  17.1589
    19.5418  23.2960  23.2960  29.7760

          k = 0.5000 0.5000 0.0500     band energies (ev):

   -69.4145 -35.8695 -35.8695 -35.2328  12.7186  15.0271  17.1034  17.1034
    19.5427  23.3753  23.3753  29.7783

          k = 0.5000 0.5000 0.0625     band energies (ev):

   -69.4133 -35.8685 -35.8685 -35.2408  12.7350  15.0792  17.0344  17.0344
    19.5438  23.4751  23.4751  29.7813

          k = 0.5000 0.5000 0.0750     band energies (ev):

   -69.4119 -35.8672 -35.8672 -35.2504  12.7550  15.1426  16.9534  16.9534
    19.5452  23.5938  23.5938  29.7850

          k = 0.5000 0.5000 0.0875     band energies (ev):

   -69.4103 -35.8657 -35.8657 -35.2617  12.7785  15.2169  16.8619  16.8619
    19.5469  23.7300  23.7300  29.7893

          k = 0.5000 0.5000 0.1000     band energies (ev):

   -69.4085 -35.8641 -35.8641 -35.2745  12.8052  15.3020  16.7615  16.7615
    19.5487  23.8820  23.8820  29.7943

          k = 0.5000 0.5000 0.1125     band energies (ev):

   -69.4065 -35.8622 -35.8622 -35.2887  12.8352  15.3976  16.6537  16.6537
    19.5508  24.0484  24.0484  29.7999

          k = 0.5000 0.5000 0.1250     band energies (ev):

   -69.4042 -35.8602 -35.8602 -35.3043  12.8683  15.5032  16.5401  16.5401
    19.5531  24.2278  24.2278  29.8062

          k = 0.5000 0.5000 0.1375     band energies (ev):

   -69.4018 -35.8580 -35.8580 -35.3212  12.9044  15.6186  16.4218  16.4218
    19.5555  24.4187  24.4187  29.8132

          k = 0.5000 0.5000 0.1500     band energies (ev):

   -69.3993 -35.8556 -35.8556 -35.3392  12.9432  15.7432  16.3003  16.3003
    19.5582  24.6201  24.6201  29.8208

          k = 0.5000 0.5000 0.1625     band energies (ev):

   -69.3965 -35.8532 -35.8532 -35.3582  12.9846  15.8766  16.1765  16.1765
    19.5610  24.8310  24.8310  29.8291

          k = 0.5000 0.5000 0.1750     band energies (ev):

   -69.3936 -35.8505 -35.8505 -35.3782  13.0284  16.0183  16.0515  16.0515
    19.5639  25.0502  25.0502  29.8380

          k = 0.5000 0.5000 0.1875     band energies (ev):

   -69.3906 -35.8478 -35.8478 -35.3989  13.0744  15.9262  15.9262  16.1677
    19.5669  25.2769  25.2769  29.8475

          k = 0.5000 0.5000 0.2000     band energies (ev):

   -69.3876 -35.8450 -35.8450 -35.4203  13.1224  15.8013  15.8013  16.3242
    19.5701  25.5105  25.5105  29.8577

          k = 0.5000 0.5000 0.2125     band energies (ev):

   -69.3844 -35.8421 -35.8421 -35.4422  13.1721  15.6776  15.6776  16.4871
    19.5733  25.7501  25.7501  29.8685

          k = 0.5000 0.5000 0.2250     band energies (ev):

   -69.3811 -35.8392 -35.8392 -35.4645  13.2232  15.5558  15.5558  16.6557
    19.5766  25.9951  25.9951  29.8799

          k = 0.5000 0.5000 0.2375     band energies (ev):

   -69.3779 -35.8362 -35.8362 -35.4870  13.2755  15.4363  15.4363  16.8292
    19.5800  26.2449  26.2449  29.8919

          k = 0.5000 0.5000 0.2500     band energies (ev):

   -69.3746 -35.8332 -35.8332 -35.5096  13.3287  15.3198  15.3198  17.0067
    19.5833  26.4989  26.4989  29.9045

          k = 0.5000 0.5000 0.2625     band energies (ev):

   -69.3713 -35.8302 -35.8302 -35.5322  13.3824  15.2066  15.2066  17.1873
    19.5867  26.7566  26.7566  29.9176

          k = 0.5000 0.5000 0.2750     band energies (ev):

   -69.3680 -35.8272 -35.8272 -35.5547  13.4364  15.0972  15.0972  17.3702
    19.5900  27.0175  27.0175  29.9313

          k = 0.5000 0.5000 0.2875     band energies (ev):

   -69.3647 -35.8243 -35.8243 -35.5768  13.4903  14.9919  14.9919  17.5541
    19.5933  27.2810  27.2810  29.9453

          k = 0.5000 0.5000 0.3000     band energies (ev):

   -69.3616 -35.8214 -35.8214 -35.5984  13.5438  14.8911  14.8911  17.7381
    19.5966  27.5465  27.5465  29.9598

          k = 0.5000 0.5000 0.3125     band energies (ev):

   -69.3585 -35.8185 -35.8185 -35.6195  13.5964  14.7951  14.7951  17.9210
    19.5997  27.8134  27.8134  29.9747

          k = 0.5000 0.5000 0.3250     band energies (ev):

   -69.3554 -35.8158 -35.8158 -35.6398  13.6480  14.7041  14.7041  18.1016
    19.6028  28.0809  28.0809  29.9897

          k = 0.5000 0.5000 0.3375     band energies (ev):

   -69.3526 -35.8132 -35.8132 -35.6594  13.6980  14.6184  14.6184  18.2785
    19.6057  28.3483  28.3483  30.0050

          k = 0.5000 0.5000 0.3500     band energies (ev):

   -69.3498 -35.8107 -35.8107 -35.6780  13.7461  14.5383  14.5383  18.4504
    19.6085  28.6146  28.6146  30.0202

          k = 0.5000 0.5000 0.3625     band energies (ev):

   -69.3472 -35.8083 -35.8083 -35.6955  13.7921  14.4638  14.4638  18.6160
    19.6112  28.8786  28.8786  30.0354

          k = 0.5000 0.5000 0.3750     band energies (ev):

   -69.3448 -35.8061 -35.8061 -35.7119  13.8354  14.3953  14.3953  18.7738
    19.6137  29.1389  29.1389  30.0503

          k = 0.5000 0.5000 0.3875     band energies (ev):

   -69.3425 -35.8040 -35.8040 -35.7270  13.8758  14.3329  14.3329  18.9223
    19.6160  29.3938  29.3938  30.0647

          k = 0.5000 0.5000 0.4000     band energies (ev):

   -69.3404 -35.8022 -35.8022 -35.7408  13.9130  14.2766  14.2766  19.0602
    19.6181  29.6410  29.6410  30.0785

          k = 0.5000 0.5000 0.4125     band energies (ev):

   -69.3386 -35.8005 -35.8005 -35.7532  13.9465  14.2267  14.2267  19.1859
    19.6199  29.8776  29.8776  30.0915

          k = 0.5000 0.5000 0.4250     band energies (ev):

   -69.3370 -35.7990 -35.7990 -35.7640  13.9763  14.1832  14.1832  19.2982
    19.6216  30.1002  30.1002  30.1033

          k = 0.5000 0.5000 0.4375     band energies (ev):

   -69.3356 -35.7978 -35.7978 -35.7733  14.0019  14.1463  14.1463  19.3957
    19.6230  30.1138  30.3043  30.3043

          k = 0.5000 0.5000 0.4500     band energies (ev):

   -69.3344 -35.7967 -35.7967 -35.7810  14.0232  14.1159  14.1159  19.4772
    19.6242  30.1228  30.4846  30.4846

          k = 0.5000 0.5000 0.4625     band energies (ev):

   -69.3335 -35.7959 -35.7959 -35.7870  14.0400  14.0923  14.0923  19.5418
    19.6251  30.1300  30.6350  30.6350

          k = 0.5000 0.5000 0.4750     band energies (ev):

   -69.3329 -35.7953 -35.7953 -35.7914  14.0520  14.0753  14.0753  19.5885
    19.6258  30.1353  30.7488  30.7488

          k = 0.5000 0.5000 0.4875     band energies (ev):

   -69.3325 -35.7950 -35.7950 -35.7940  14.0593  14.0652  14.0652  19.6168
    19.6262  30.1385  30.8201  30.8201

          k = 0.5000 0.5000 0.5000     band energies (ev):

   -69.3324 -35.7948 -35.7948 -35.7948  14.0618  14.0618  14.0618  19.6263
    19.6263  30.1396  30.8444  30.8444

     Writing output data file fe.save

     init_run     :      0.81s CPU      0.95s WALL (       1 calls)
     electrons    :     16.02s CPU     16.92s WALL (       1 calls)

     Called by init_run:
     wfcinit      :      0.00s CPU      0.00s WALL (       1 calls)
     potinit      :      0.02s CPU      0.06s WALL (       1 calls)

     Called by electrons:
     c_bands      :     16.01s CPU     16.91s WALL (       1 calls)
     v_of_rho     :      0.01s CPU      0.02s WALL (       1 calls)
     v_h          :      0.00s CPU      0.00s WALL (       1 calls)
     v_xc         :      0.01s CPU      0.02s WALL (       1 calls)
     newd         :      0.03s CPU      0.04s WALL (       1 calls)

     Called by c_bands:
     init_us_2    :      0.08s CPU      0.12s WALL (     281 calls)
     cegterg      :     14.08s CPU     14.25s WALL (     286 calls)

     Called by sum_band:

     Called by *egterg:
     h_psi        :      7.56s CPU      7.62s WALL (    4450 calls)
     s_psi        :      0.68s CPU      0.68s WALL (    4450 calls)
     g_psi        :      0.19s CPU      0.18s WALL (    3883 calls)
     cdiaghg      :      2.12s CPU      2.23s WALL (    4164 calls)
     cegterg:over :      1.87s CPU      1.91s WALL (    3883 calls)
     cegterg:upda :      1.12s CPU      1.11s WALL (    3883 calls)
     cegterg:last :      1.23s CPU      1.24s WALL (     848 calls)

     Called by h_psi:
     h_psi:vloc   :      6.06s CPU      6.17s WALL (    4450 calls)
     h_psi:vnl    :      1.41s CPU      1.37s WALL (    4450 calls)
     add_vuspsi   :      0.67s CPU      0.68s WALL (    4450 calls)

     General routines
     calbec       :      0.72s CPU      0.67s WALL (    4450 calls)
     fft          :      0.01s CPU      0.09s WALL (      13 calls)
     ffts         :      0.00s CPU      0.00s WALL (       1 calls)
     fftw         :      4.73s CPU      4.73s WALL (   62408 calls)
     interpolate  :      0.00s CPU      0.00s WALL (       1 calls)
     davcio       :      0.05s CPU      0.61s WALL (     281 calls)

     Parallel routines
     fft_scatter  :      0.62s CPU      0.63s WALL (   62422 calls)

     PWSCF        :    17.68s CPU        19.17s WALL


   This run was terminated on:  14:37:19  18Jan2014            

=------------------------------------------------------------------------------=
   JOB DONE.
=------------------------------------------------------------------------------=
