
     Program PWSCF v.5.0.2 (svn rev. 9656) starts on  3Jan2014 at 12:28:17 

     This program is part of the open-source Quantum ESPRESSO suite
     for quantum simulation of materials; please cite
         "P. Giannozzi et al., J. Phys.:Condens. Matter 21 395502 (2009);
          URL http://www.quantum-espresso.org", 
     in publications or presentations arising from this work. More details at
     http://www.quantum-espresso.org/quote.php

     Parallel version (MPI), running on     1 processors

     Current dimensions of program PWSCF are:
     Max number of different atomic species (ntypx) = 10
     Max number of k-points (npk) =  40000
     Max angular momentum in pseudopotentials (lmaxx) =  3
     Waiting for input...
     Reading input from standard input

     Subspace diagonalization in iterative solution of the eigenvalue problem:
     a serial algorithm will be used


     G-vector sticks info
     --------------------
     sticks:   dense  smooth     PW     G-vecs:    dense   smooth      PW
     Sum         437     293    101                 6979     3791     751



     bravais-lattice index     =            1
     lattice parameter (alat)  =       4.3000  a.u.
     unit-cell volume          =      79.5070 (a.u.)^3
     number of atoms/cell      =            1
     number of atomic types    =            1
     number of electrons       =        16.00
     number of Kohn-Sham states=           12
     kinetic-energy cutoff     =      50.0000  Ry
     charge density cutoff     =     300.0000  Ry
     convergence threshold     =      1.0E-09
     mixing beta               =       0.7000
     number of iterations used =            8  plain     mixing
     Exchange-correlation      = SLA  PW   PBE  PBE ( 1 4 3 4 0)
     EXX-fraction              =        0.00

     celldm(1)=   4.300000  celldm(2)=   0.000000  celldm(3)=   0.000000
     celldm(4)=   0.000000  celldm(5)=   0.000000  celldm(6)=   0.000000

     crystal axes: (cart. coord. in units of alat)
               a(1) = (   1.000000   0.000000   0.000000 )  
               a(2) = (   0.000000   1.000000   0.000000 )  
               a(3) = (   0.000000   0.000000   1.000000 )  

     reciprocal axes: (cart. coord. in units 2 pi/alat)
               b(1) = (  1.000000  0.000000  0.000000 )  
               b(2) = (  0.000000  1.000000  0.000000 )  
               b(3) = (  0.000000  0.000000  1.000000 )  


     PseudoPot. # 1 for Fe read from file:
     ../pps/fe_pbe_v1.uspp.F.UPF
     MD5 check sum: e6601fc8106164ab3104f788edde3ce3
     Pseudo is Ultrasoft + core correction, Zval = 16.0
     Generated by new atomic code, or converted to UPF format
     Using radial grid of  861 points,  6 beta functions with: 
                l(1) =   0
                l(2) =   0
                l(3) =   1
                l(4) =   1
                l(5) =   2
                l(6) =   2
     Q(r) pseudized with  8 coefficients,  rinner =    1.200   1.200   1.200
                                                       1.200   1.200

     atomic species   valence    mass     pseudopotential
        Fe            16.00    55.85000     Fe( 1.00)

     48 Sym. Ops., with inversion, found



   Cartesian axes

     site n.     atom                  positions (alat units)
         1           Fe  tau(   1) = (   0.0000000   0.0000000   0.0000000  )

     number of k points=   165  Marzari-Vanderbilt smearing, width (Ry)=  0.0200

     Number of k-points >= 100: set verbosity='high' to print them.

     Dense  grid:     6979 G-vectors     FFT dimensions: (  24,  24,  24)

     Smooth grid:     3791 G-vectors     FFT dimensions: (  20,  20,  20)

     Largest allocated arrays     est. size (Mb)     dimensions
        Kohn-Sham Wavefunctions         0.09 Mb     (    488,   12)
        NL pseudopotentials             0.13 Mb     (    488,   18)
        Each V/rho on FFT grid          0.21 Mb     (  13824)
        Each G-vector array             0.05 Mb     (   6979)
        G-vector shells                 0.00 Mb     (    119)
     Largest temporary arrays     est. size (Mb)     dimensions
        Auxiliary wavefunctions         0.36 Mb     (    488,   48)
        Each subspace H/S matrix        0.04 Mb     (  48,  48)
        Each <psi_i|beta_j> matrix      0.00 Mb     (     18,   12)
        Arrays for rho mixing           1.69 Mb     (  13824,   8)

     Check: negative/imaginary core charge=   -0.000214    0.000000

     Initial potential from superposition of free atoms

     starting charge   14.99999, renormalised to   16.00000
     Starting wfc are   13 randomized atomic wfcs

     total cpu time spent up to now is        2.0 secs

     per-process dynamical memory:     9.7 Mb

     Self-consistent Calculation

     iteration #  1     ecut=    50.00 Ry     beta=0.70
     Davidson diagonalization with overlap
     ethr =  1.00E-02,  avg # of iterations =  3.4

     total cpu time spent up to now is        5.5 secs

     total energy              =    -251.80949618 Ry
     Harris-Foulkes estimate   =    -254.01082931 Ry
     estimated scf accuracy    <       2.69904803 Ry

     iteration #  2     ecut=    50.00 Ry     beta=0.70
     Davidson diagonalization with overlap
     ethr =  1.00E-02,  avg # of iterations =  2.8

     total cpu time spent up to now is        9.1 secs

     total energy              =    -252.29791098 Ry
     Harris-Foulkes estimate   =    -255.31153813 Ry
     estimated scf accuracy    <       7.29745924 Ry

     iteration #  3     ecut=    50.00 Ry     beta=0.70
     Davidson diagonalization with overlap
     ethr =  1.00E-02,  avg # of iterations =  2.0

     total cpu time spent up to now is       11.9 secs

     total energy              =    -253.39072955 Ry
     Harris-Foulkes estimate   =    -253.39002246 Ry
     estimated scf accuracy    <       0.01043322 Ry

     iteration #  4     ecut=    50.00 Ry     beta=0.70
     Davidson diagonalization with overlap
     ethr =  6.52E-05,  avg # of iterations =  2.4

     total cpu time spent up to now is       14.4 secs

     total energy              =    -253.38696666 Ry
     Harris-Foulkes estimate   =    -253.39154350 Ry
     estimated scf accuracy    <       0.01332300 Ry

     iteration #  5     ecut=    50.00 Ry     beta=0.70
     Davidson diagonalization with overlap
     ethr =  6.52E-05,  avg # of iterations =  1.2

     total cpu time spent up to now is       16.6 secs

     total energy              =    -253.38806847 Ry
     Harris-Foulkes estimate   =    -253.38818727 Ry
     estimated scf accuracy    <       0.00037243 Ry

     iteration #  6     ecut=    50.00 Ry     beta=0.70
     Davidson diagonalization with overlap
     ethr =  2.33E-06,  avg # of iterations =  2.6

     total cpu time spent up to now is       19.1 secs

     total energy              =    -253.38810020 Ry
     Harris-Foulkes estimate   =    -253.38810351 Ry
     estimated scf accuracy    <       0.00003884 Ry

     iteration #  7     ecut=    50.00 Ry     beta=0.70
     Davidson diagonalization with overlap
     ethr =  2.43E-07,  avg # of iterations =  1.1

     total cpu time spent up to now is       21.2 secs

     total energy              =    -253.38809898 Ry
     Harris-Foulkes estimate   =    -253.38810124 Ry
     estimated scf accuracy    <       0.00000750 Ry

     iteration #  8     ecut=    50.00 Ry     beta=0.70
     Davidson diagonalization with overlap
     ethr =  4.69E-08,  avg # of iterations =  1.2

     total cpu time spent up to now is       23.5 secs

     total energy              =    -253.38809942 Ry
     Harris-Foulkes estimate   =    -253.38809944 Ry
     estimated scf accuracy    <       0.00000014 Ry

     iteration #  9     ecut=    50.00 Ry     beta=0.70
     Davidson diagonalization with overlap
     ethr =  9.05E-10,  avg # of iterations =  2.0

     total cpu time spent up to now is       26.5 secs

     total energy              =    -253.38809944 Ry
     Harris-Foulkes estimate   =    -253.38809944 Ry
     estimated scf accuracy    <          7.3E-09 Ry

     iteration # 10     ecut=    50.00 Ry     beta=0.70
     Davidson diagonalization with overlap
     ethr =  4.58E-11,  avg # of iterations =  1.9

     total cpu time spent up to now is       28.8 secs

     End of self-consistent calculation

     Number of k-points >= 100: set verbosity='high' to print the bands.

     the Fermi energy is    17.5042 ev

!    total energy              =    -253.38809944 Ry
     Harris-Foulkes estimate   =    -253.38809944 Ry
     estimated scf accuracy    <          4.7E-10 Ry

     The total energy is the sum of the following terms:

     one-electron contribution =    -128.52528941 Ry
     hartree contribution      =      73.49568665 Ry
     xc contribution           =     -29.44007452 Ry
     ewald contribution        =    -168.91817552 Ry
     smearing contrib. (-TS)   =      -0.00024664 Ry

     convergence has been achieved in  10 iterations

     Writing output data file fe.save

     init_run     :      1.77s CPU      1.85s WALL (       1 calls)
     electrons    :     25.10s CPU     26.80s WALL (       1 calls)

     Called by init_run:
     wfcinit      :      0.99s CPU      1.06s WALL (       1 calls)
     potinit      :      0.02s CPU      0.02s WALL (       1 calls)

     Called by electrons:
     c_bands      :     20.93s CPU     21.76s WALL (      10 calls)
     sum_band     :      3.62s CPU      3.73s WALL (      10 calls)
     v_of_rho     :      0.17s CPU      0.17s WALL (      11 calls)
     newd         :      0.40s CPU      0.40s WALL (      11 calls)
     mix_rho      :      0.01s CPU      0.31s WALL (      10 calls)

     Called by c_bands:
     init_us_2    :      1.36s CPU      1.40s WALL (    3465 calls)
     cegterg      :     18.90s CPU     19.34s WALL (    1650 calls)

     Called by *egterg:
     h_psi        :     11.71s CPU     12.23s WALL (    5215 calls)
     s_psi        :      1.27s CPU      1.17s WALL (    5215 calls)
     g_psi        :      0.21s CPU      0.20s WALL (    3400 calls)
     cdiaghg      :      1.90s CPU      1.92s WALL (    5050 calls)

     Called by h_psi:
     add_vuspsi   :      1.00s CPU      1.08s WALL (    5215 calls)

     General routines
     calbec       :      1.44s CPU      1.49s WALL (    6865 calls)
     fft          :      0.07s CPU      0.06s WALL (     172 calls)
     ffts         :      0.01s CPU      0.00s WALL (      21 calls)
     fftw         :      8.79s CPU      9.01s WALL (  118308 calls)
     interpolate  :      0.02s CPU      0.01s WALL (      21 calls)
     davcio       :      0.20s CPU      0.56s WALL (    5115 calls)

     Parallel routines
     fft_scatter  :      1.25s CPU      1.31s WALL (  118501 calls)

     PWSCF        :    27.32s CPU        29.44s WALL


   This run was terminated on:  12:28:47   3Jan2014            

=------------------------------------------------------------------------------=
   JOB DONE.
=------------------------------------------------------------------------------=
