
     Program PWSCF v.6.6 starts on 10Jan2021 at 11:38:28 

     This program is part of the open-source Quantum ESPRESSO suite
     for quantum simulation of materials; please cite
         "P. Giannozzi et al., J. Phys.:Condens. Matter 21 395502 (2009);
         "P. Giannozzi et al., J. Phys.:Condens. Matter 29 465901 (2017);
          URL http://www.quantum-espresso.org", 
     in publications or presentations arising from this work. More details at
     http://www.quantum-espresso.org/quote

     Parallel version (MPI), running on    96 processors

     MPI processes distributed on     4 nodes
     K-points division:     npool     =       2
     R & G space division:  proc/nbgrp/npool/nimage =      48
     Fft bands division:     nmany     =       1
     Waiting for input...
     Reading input from standard input

     Current dimensions of program PWSCF are:
     Max number of different atomic species (ntypx) = 10
     Max number of k-points (npk) =  40000
     Max angular momentum in pseudopotentials (lmaxx) =  3

     Atomic positions and unit cell read from directory:
     ./SnS2.save/
     Atomic positions from file used, from input discarded
 

     IMPORTANT: XC functional enforced from input :
     Exchange-correlation= VDW-DF-OB86
                           (   1   4  24   0   1   0   0)
     Any further DFT definition will be discarded
     Please, verify this is what you really want


     Subspace diagonalization in iterative solution of the eigenvalue problem:
     a serial algorithm will be used

     Found symmetry operation: I + (  0.3333 -0.3333  0.0000)
     This is a supercell, fractional translations are disabled
 
     Parallelization info
     --------------------
     sticks:   dense  smooth     PW     G-vecs:    dense   smooth      PW
     Min          50      50     14                 1822     1822     268
     Max          51      51     15                 1826     1826     272
     Sum        2407    2407    673                87577    87577   12989
 


     bravais-lattice index     =            4
     lattice parameter (alat)  =      12.0564  a.u.
     unit-cell volume          =    1393.8323 (a.u.)^3
     number of atoms/cell      =            9
     number of atomic types    =            2
     number of electrons       =        78.00
     number of Kohn-Sham states=           64
     kinetic-energy cutoff     =      60.0000  Ry
     charge density cutoff     =     240.0000  Ry
     Exchange-correlation= VDW-DF-OB86
                           (   1   4  24   0   1   0   0)

     celldm(1)=  12.056364  celldm(2)=   0.000000  celldm(3)=   0.918398
     celldm(4)=   0.000000  celldm(5)=   0.000000  celldm(6)=   0.000000

     crystal axes: (cart. coord. in units of alat)
               a(1) = (   1.000000   0.000000   0.000000 )  
               a(2) = (  -0.500000   0.866025   0.000000 )  
               a(3) = (   0.000000   0.000000   0.918398 )  

     reciprocal axes: (cart. coord. in units 2 pi/alat)
               b(1) = (  1.000000  0.577350  0.000000 )  
               b(2) = (  0.000000  1.154701  0.000000 )  
               b(3) = (  0.000000  0.000000  1.088853 )  


     PseudoPot. # 1 for S  read from file:
     /home/gkafle1/pseudo/S_ONCV_PBE-1.1.upf
     MD5 check sum: 3b82616211bcbfa2c72684cdbcbe3018
     Pseudo is Norm-conserving, Zval =  6.0
     Generated using ONCVPSP code by D. R. Hamann
     Using radial grid of  602 points,  4 beta functions with: 
                l(1) =   0
                l(2) =   0
                l(3) =   1
                l(4) =   1

     PseudoPot. # 2 for Sn read from file:
     /home/gkafle1/pseudo/Sn_ONCV_PBE-1.1.upf
     MD5 check sum: 7fc728ef37b8342e916bba54f6049344
     Pseudo is Norm-conserving, Zval = 14.0
     Generated using ONCVPSP code by D. R. Hamann
     Using radial grid of  602 points,  6 beta functions with: 
                l(1) =   0
                l(2) =   0
                l(3) =   1
                l(4) =   1
                l(5) =   2
                l(6) =   2

     atomic species   valence    mass     pseudopotential
        S              6.00    32.06000     S ( 1.00)
        Sn            14.00   118.71000     Sn( 1.00)

     12 Sym. Ops., with inversion, found


                                    s                        frac. trans.

      isym =  1     identity                                     

 cryst.   s( 1) = (     1          0          0      )
                  (     0          1          0      )
                  (     0          0          1      )

 cart.    s( 1) = (  1.0000000  0.0000000  0.0000000 )
                  (  0.0000000  1.0000000  0.0000000 )
                  (  0.0000000  0.0000000  1.0000000 )


      isym =  2     180 deg rotation - cart. axis [0,1,0]        

 cryst.   s( 2) = (    -1          0          0      )
                  (     1          1          0      )
                  (     0          0         -1      )

 cart.    s( 2) = ( -1.0000000  0.0000000  0.0000000 )
                  (  0.0000000  1.0000000  0.0000000 )
                  (  0.0000000  0.0000000 -1.0000000 )


      isym =  3     120 deg rotation - cryst. axis [0,0,1]       

 cryst.   s( 3) = (     0          1          0      )
                  (    -1         -1          0      )
                  (     0          0          1      )

 cart.    s( 3) = ( -0.5000000 -0.8660254  0.0000000 )
                  (  0.8660254 -0.5000000  0.0000000 )
                  (  0.0000000  0.0000000  1.0000000 )


      isym =  4     120 deg rotation - cryst. axis [0,0,-1]      

 cryst.   s( 4) = (    -1         -1          0      )
                  (     1          0          0      )
                  (     0          0          1      )

 cart.    s( 4) = ( -0.5000000  0.8660254  0.0000000 )
                  ( -0.8660254 -0.5000000  0.0000000 )
                  (  0.0000000  0.0000000  1.0000000 )


      isym =  5     180 deg rotation - cryst. axis [1,-1,0]      

 cryst.   s( 5) = (     0         -1          0      )
                  (    -1          0          0      )
                  (     0          0         -1      )

 cart.    s( 5) = (  0.5000000 -0.8660254  0.0000000 )
                  ( -0.8660254 -0.5000000  0.0000000 )
                  (  0.0000000  0.0000000 -1.0000000 )


      isym =  6     180 deg rotation - cryst. axis [2,1,0]       

 cryst.   s( 6) = (     1          1          0      )
                  (     0         -1          0      )
                  (     0          0         -1      )

 cart.    s( 6) = (  0.5000000  0.8660254  0.0000000 )
                  (  0.8660254 -0.5000000  0.0000000 )
                  (  0.0000000  0.0000000 -1.0000000 )


      isym =  7     inversion                                    

 cryst.   s( 7) = (    -1          0          0      )
                  (     0         -1          0      )
                  (     0          0         -1      )

 cart.    s( 7) = ( -1.0000000  0.0000000  0.0000000 )
                  (  0.0000000 -1.0000000  0.0000000 )
                  (  0.0000000  0.0000000 -1.0000000 )


      isym =  8     inv. 180 deg rotation - cart. axis [0,1,0]   

 cryst.   s( 8) = (     1          0          0      )
                  (    -1         -1          0      )
                  (     0          0          1      )

 cart.    s( 8) = (  1.0000000  0.0000000  0.0000000 )
                  (  0.0000000 -1.0000000  0.0000000 )
                  (  0.0000000  0.0000000  1.0000000 )


      isym =  9     inv. 120 deg rotation - cryst. axis [0,0,1]  

 cryst.   s( 9) = (     0         -1          0      )
                  (     1          1          0      )
                  (     0          0         -1      )

 cart.    s( 9) = (  0.5000000  0.8660254  0.0000000 )
                  ( -0.8660254  0.5000000  0.0000000 )
                  (  0.0000000  0.0000000 -1.0000000 )


      isym = 10     inv. 120 deg rotation - cryst. axis [0,0,-1] 

 cryst.   s(10) = (     1          1          0      )
                  (    -1          0          0      )
                  (     0          0         -1      )

 cart.    s(10) = (  0.5000000 -0.8660254  0.0000000 )
                  (  0.8660254  0.5000000  0.0000000 )
                  (  0.0000000  0.0000000 -1.0000000 )


      isym = 11     inv. 180 deg rotation - cryst. axis [1,-1,0] 

 cryst.   s(11) = (     0          1          0      )
                  (     1          0          0      )
                  (     0          0          1      )

 cart.    s(11) = ( -0.5000000  0.8660254  0.0000000 )
                  (  0.8660254  0.5000000  0.0000000 )
                  (  0.0000000  0.0000000  1.0000000 )


      isym = 12     inv. 180 deg rotation - cryst. axis [2,1,0]  

 cryst.   s(12) = (    -1         -1          0      )
                  (     0          1          0      )
                  (     0          0          1      )

 cart.    s(12) = ( -0.5000000 -0.8660254  0.0000000 )
                  ( -0.8660254  0.5000000  0.0000000 )
                  (  0.0000000  0.0000000  1.0000000 )


     point group D_3d (-3m) 
     there are  6 classes
     the character table:

       E     2C3   3C2'  i     2S6   3s_d 
A_1g   1.00  1.00  1.00  1.00  1.00  1.00
A_2g   1.00  1.00 -1.00  1.00  1.00 -1.00
E_g    2.00 -1.00  0.00  2.00 -1.00  0.00
A_1u   1.00  1.00  1.00 -1.00 -1.00 -1.00
A_2u   1.00  1.00 -1.00 -1.00 -1.00  1.00
E_u    2.00 -1.00  0.00 -2.00  1.00  0.00

     the symmetry operations in each class and the name of the first element:

     E        1
          identity                                               
     2C3      3    4
          120 deg rotation - cryst. axis [0,0,1]                 
     3C2'     2    6    5
          180 deg rotation - cart. axis [0,1,0]                  
     i        7
          inversion                                              
     2S6      9   10
          inv. 120 deg rotation - cryst. axis [0,0,1]            
     3s_d     8   12   11
          inv. 180 deg rotation - cart. axis [0,1,0]             

   Cartesian axes

     site n.     atom                  positions (alat units)
         1           S   tau(   1) = (  -0.1666667   0.2886751   0.2320528  )
         2           S   tau(   2) = (   0.3333333   0.0000000   0.2320528  )
         3           S   tau(   3) = (   0.3333333   0.5773503   0.2320528  )
         4           S   tau(   4) = (  -0.3333333   0.5773503   0.6863450  )
         5           S   tau(   5) = (   0.6666667   0.0000000   0.6863450  )
         6           S   tau(   6) = (   0.1666667   0.2886751   0.6863450  )
         7           Sn  tau(   7) = (   0.0000000   0.0000000   0.0000000  )
         8           Sn  tau(   8) = (  -0.0000000   0.5773503   0.0000000  )
         9           Sn  tau(   9) = (   0.5000000   0.2886751   0.0000000  )

   Crystallographic axes

     site n.     atom                  positions (cryst. coord.)
         1           S   tau(   1) = (  0.0000000  0.3333333  0.2526713  )
         2           S   tau(   2) = (  0.3333333  0.0000000  0.2526713  )
         3           S   tau(   3) = (  0.6666667  0.6666667  0.2526713  )
         4           S   tau(   4) = (  0.0000000  0.6666667  0.7473287  )
         5           S   tau(   5) = (  0.6666667  0.0000000  0.7473287  )
         6           S   tau(   6) = (  0.3333333  0.3333333  0.7473287  )
         7           Sn  tau(   7) = (  0.0000000  0.0000000  0.0000000  )
         8           Sn  tau(   8) = (  0.3333333  0.6666667  0.0000000  )
         9           Sn  tau(   9) = (  0.6666667  0.3333333  0.0000000  )

     number of k points=   279  Marzari-Vanderbilt smearing, width (Ry)=  0.0100
                       cart. coord. in units 2pi/alat
        k(    1) = (   0.0000000   0.0000000   0.0000000), wk =   0.0000512
        k(    2) = (   0.0250000   0.0000000   0.0000000), wk =   0.0001024
        k(    3) = (   0.0500000   0.0000000   0.0000000), wk =   0.0001536
        k(    4) = (   0.0750000   0.0000000   0.0000000), wk =   0.0002048
        k(    5) = (   0.1000000   0.0000000   0.0000000), wk =   0.0002560
        k(    6) = (   0.1250000   0.0000000   0.0000000), wk =   0.0003072
        k(    7) = (   0.1500000   0.0000000   0.0000000), wk =   0.0003584
        k(    8) = (   0.1750000   0.0000000   0.0000000), wk =   0.0004096
        k(    9) = (   0.2000000   0.0000000   0.0000000), wk =   0.0004608
        k(   10) = (   0.2250000   0.0000000   0.0000000), wk =   0.0005120
        k(   11) = (   0.2500000   0.0000000   0.0000000), wk =   0.0005632
        k(   12) = (   0.2750000   0.0000000   0.0000000), wk =   0.0006144
        k(   13) = (   0.3000000   0.0000000   0.0000000), wk =   0.0006656
        k(   14) = (   0.3250000   0.0000000   0.0000000), wk =   0.0007168
        k(   15) = (   0.3500000   0.0000000   0.0000000), wk =   0.0007680
        k(   16) = (   0.3750000   0.0000000   0.0000000), wk =   0.0008193
        k(   17) = (   0.4000000   0.0000000   0.0000000), wk =   0.0008705
        k(   18) = (   0.4250000   0.0000000   0.0000000), wk =   0.0009217
        k(   19) = (   0.4500000   0.0000000   0.0000000), wk =   0.0009729
        k(   20) = (   0.4750000   0.0000000   0.0000000), wk =   0.0010241
        k(   21) = (   0.5000000   0.0000000   0.0000000), wk =   0.0010753
        k(   22) = (   0.5250000   0.0000000   0.0000000), wk =   0.0011265
        k(   23) = (   0.5500000   0.0000000   0.0000000), wk =   0.0011777
        k(   24) = (   0.5750000   0.0000000   0.0000000), wk =   0.0012289
        k(   25) = (   0.6000000   0.0000000   0.0000000), wk =   0.0012801
        k(   26) = (   0.6250000   0.0000000   0.0000000), wk =   0.0013313
        k(   27) = (   0.6500000   0.0000000   0.0000000), wk =   0.0013825
        k(   28) = (  -0.3250000   0.5773503   0.0000000), wk =   0.0014337
        k(   29) = (  -0.3000000   0.5773503   0.0000000), wk =   0.0014849
        k(   30) = (  -0.2750000   0.5773503   0.0000000), wk =   0.0015361
        k(   31) = (  -0.2500000   0.5773503   0.0000000), wk =   0.0015873
        k(   32) = (  -0.2250000   0.5773503   0.0000000), wk =   0.0016385
        k(   33) = (  -0.2000000   0.5773503   0.0000000), wk =   0.0016897
        k(   34) = (  -0.1750000   0.5773503   0.0000000), wk =   0.0017409
        k(   35) = (  -0.1500000   0.5773503   0.0000000), wk =   0.0017921
        k(   36) = (  -0.1250000   0.5773503   0.0000000), wk =   0.0018433
        k(   37) = (  -0.1000000   0.5773503   0.0000000), wk =   0.0018945
        k(   38) = (  -0.0750000   0.5773503   0.0000000), wk =   0.0019457
        k(   39) = (  -0.0500000   0.5773503   0.0000000), wk =   0.0019969
        k(   40) = (  -0.0250000   0.5773503   0.0000000), wk =   0.0020481
        k(   41) = (   0.0000000   0.5773503   0.0000000), wk =   0.0020993
        k(   42) = (  -0.0000025  -0.5629180   0.0000000), wk =   0.0021505
        k(   43) = (  -0.0000050  -0.5484856   0.0000000), wk =   0.0022017
        k(   44) = (  -0.0000075  -0.5340533   0.0000000), wk =   0.0022529
        k(   45) = (  -0.0000100  -0.5196210   0.0000000), wk =   0.0023041
        k(   46) = (  -0.0000125  -0.5051887   0.0000000), wk =   0.0023554
        k(   47) = (  -0.0000150  -0.4907564   0.0000000), wk =   0.0024066
        k(   48) = (  -0.0000175  -0.4763241   0.0000000), wk =   0.0024578
        k(   49) = (  -0.0000200  -0.4618918   0.0000000), wk =   0.0025090
        k(   50) = (  -0.0000225  -0.4474594   0.0000000), wk =   0.0025602
        k(   51) = (  -0.0000250  -0.4330271   0.0000000), wk =   0.0026114
        k(   52) = (  -0.0000275  -0.4185948   0.0000000), wk =   0.0026626
        k(   53) = (  -0.0000300  -0.4041625   0.0000000), wk =   0.0027138
        k(   54) = (  -0.0000325  -0.3897302   0.0000000), wk =   0.0027650
        k(   55) = (  -0.0000350  -0.3752979   0.0000000), wk =   0.0028162
        k(   56) = (  -0.0000375  -0.3608656   0.0000000), wk =   0.0028674
        k(   57) = (  -0.0000400  -0.3464333   0.0000000), wk =   0.0029186
        k(   58) = (  -0.0000425  -0.3320009   0.0000000), wk =   0.0029698
        k(   59) = (  -0.0000450  -0.3175686   0.0000000), wk =   0.0030210
        k(   60) = (  -0.0000475  -0.3031363   0.0000000), wk =   0.0030722
        k(   61) = (  -0.0000500  -0.2887040   0.0000000), wk =   0.0031234
        k(   62) = (  -0.0000525  -0.2742717   0.0000000), wk =   0.0031746
        k(   63) = (  -0.0000550  -0.2598394   0.0000000), wk =   0.0032258
        k(   64) = (  -0.0000575  -0.2454071   0.0000000), wk =   0.0032770
        k(   65) = (  -0.0000600  -0.2309747   0.0000000), wk =   0.0033282
        k(   66) = (  -0.0000625  -0.2165424   0.0000000), wk =   0.0033794
        k(   67) = (  -0.0000650  -0.2021101   0.0000000), wk =   0.0034306
        k(   68) = (  -0.0000675  -0.1876778   0.0000000), wk =   0.0034818
        k(   69) = (  -0.0000700  -0.1732455   0.0000000), wk =   0.0035330
        k(   70) = (  -0.0000725  -0.1588132   0.0000000), wk =   0.0035842
        k(   71) = (  -0.0000750  -0.1443809   0.0000000), wk =   0.0036354
        k(   72) = (  -0.0000775  -0.1299486   0.0000000), wk =   0.0036866
        k(   73) = (  -0.0000800  -0.1155162   0.0000000), wk =   0.0037378
        k(   74) = (  -0.0000825  -0.1010839   0.0000000), wk =   0.0037890
        k(   75) = (  -0.0000850  -0.0866516   0.0000000), wk =   0.0038402
        k(   76) = (  -0.0000875  -0.0722193   0.0000000), wk =   0.0038914
        k(   77) = (  -0.0000900  -0.0577870   0.0000000), wk =   0.0039427
        k(   78) = (  -0.0000925  -0.0433547   0.0000000), wk =   0.0039939
        k(   79) = (  -0.0000950  -0.0289224   0.0000000), wk =   0.0040451
        k(   80) = (  -0.0000975  -0.0144900   0.0000000), wk =   0.0040963
        k(   81) = (  -0.0001000  -0.0000577   0.0000000), wk =   0.0041475
        k(   82) = (  -0.0250975  -0.0144900   0.0000000), wk =   0.0041987
        k(   83) = (  -0.0500950  -0.0289224   0.0000000), wk =   0.0042499
        k(   84) = (  -0.0750925  -0.0433547   0.0000000), wk =   0.0043011
        k(   85) = (  -0.1000900  -0.0577870   0.0000000), wk =   0.0043523
        k(   86) = (  -0.1250875  -0.0722193   0.0000000), wk =   0.0044035
        k(   87) = (  -0.1500850  -0.0866516   0.0000000), wk =   0.0044547
        k(   88) = (  -0.1750825  -0.1010839   0.0000000), wk =   0.0045059
        k(   89) = (  -0.2000800  -0.1155162   0.0000000), wk =   0.0045571
        k(   90) = (  -0.2250775  -0.1299486   0.0000000), wk =   0.0046083
        k(   91) = (  -0.2500750  -0.1443809   0.0000000), wk =   0.0046595
        k(   92) = (  -0.2750725  -0.1588132   0.0000000), wk =   0.0047107
        k(   93) = (  -0.3000700  -0.1732455   0.0000000), wk =   0.0047619
        k(   94) = (  -0.3250675  -0.1876778   0.0000000), wk =   0.0048131
        k(   95) = (  -0.3500650  -0.2021101   0.0000000), wk =   0.0048643
        k(   96) = (  -0.3750625  -0.2165424   0.0000000), wk =   0.0049155
        k(   97) = (  -0.4000600  -0.2309747   0.0000000), wk =   0.0049667
        k(   98) = (  -0.4250575  -0.2454071   0.0000000), wk =   0.0050179
        k(   99) = (  -0.4500550  -0.2598394   0.0000000), wk =   0.0050691
        k(  100) = (  -0.4750525  -0.2742717   0.0000000), wk =   0.0051203
        k(  101) = (   0.4999500   0.2886463   0.0000000), wk =   0.0051715
        k(  102) = (   0.4749525   0.2742140   0.0000000), wk =   0.0052227
        k(  103) = (   0.4499550   0.2597816   0.0000000), wk =   0.0052739
        k(  104) = (   0.4249575   0.2453493   0.0000000), wk =   0.0053251
        k(  105) = (   0.3999600   0.2309170   0.0000000), wk =   0.0053763
        k(  106) = (   0.3749625   0.2164847   0.0000000), wk =   0.0054275
        k(  107) = (   0.3499650   0.2020524   0.0000000), wk =   0.0054788
        k(  108) = (   0.3249675   0.1876201   0.0000000), wk =   0.0055300
        k(  109) = (   0.2999700   0.1731878   0.0000000), wk =   0.0055812
        k(  110) = (   0.2749725   0.1587554   0.0000000), wk =   0.0056324
        k(  111) = (   0.2499750   0.1443231   0.0000000), wk =   0.0056836
        k(  112) = (   0.2249775   0.1298908   0.0000000), wk =   0.0057348
        k(  113) = (   0.1999800   0.1154585   0.0000000), wk =   0.0057860
        k(  114) = (   0.1749825   0.1010262   0.0000000), wk =   0.0058372
        k(  115) = (   0.1499850   0.0865939   0.0000000), wk =   0.0058884
        k(  116) = (   0.1249875   0.0721616   0.0000000), wk =   0.0059396
        k(  117) = (   0.0999900   0.0577293   0.0000000), wk =   0.0059908
        k(  118) = (   0.0749925   0.0432969   0.0000000), wk =   0.0060420
        k(  119) = (   0.0499950   0.0288646   0.0000000), wk =   0.0060932
        k(  120) = (   0.0249975   0.0144323   0.0000000), wk =   0.0061444
        k(  121) = (   0.0000000   0.0000000   0.0136107), wk =   0.0061956
        k(  122) = (   0.0000000   0.0000000   0.0272213), wk =   0.0062468
        k(  123) = (   0.0000000   0.0000000   0.0408320), wk =   0.0062980
        k(  124) = (   0.0000000   0.0000000   0.0544426), wk =   0.0063492
        k(  125) = (   0.0000000   0.0000000   0.0680533), wk =   0.0064004
        k(  126) = (   0.0000000   0.0000000   0.0816640), wk =   0.0064516
        k(  127) = (   0.0000000   0.0000000   0.0952746), wk =   0.0065028
        k(  128) = (   0.0000000   0.0000000   0.1088853), wk =   0.0065540
        k(  129) = (   0.0000000   0.0000000   0.1224959), wk =   0.0066052
        k(  130) = (   0.0000000   0.0000000   0.1361066), wk =   0.0066564
        k(  131) = (   0.0000000   0.0000000   0.1497173), wk =   0.0067076
        k(  132) = (   0.0000000   0.0000000   0.1633279), wk =   0.0067588
        k(  133) = (   0.0000000   0.0000000   0.1769386), wk =   0.0068100
        k(  134) = (   0.0000000   0.0000000   0.1905492), wk =   0.0068612
        k(  135) = (   0.0000000   0.0000000   0.2041599), wk =   0.0069124
        k(  136) = (   0.0000000   0.0000000   0.2177706), wk =   0.0069636
        k(  137) = (   0.0000000   0.0000000   0.2313812), wk =   0.0070148
        k(  138) = (   0.0000000   0.0000000   0.2449919), wk =   0.0070661
        k(  139) = (   0.0000000   0.0000000   0.2586025), wk =   0.0071173
        k(  140) = (   0.0000000   0.0000000   0.2722132), wk =   0.0071685
        k(  141) = (   0.0000000   0.0000000   0.2858239), wk =   0.0072197
        k(  142) = (   0.0000000   0.0000000   0.2994345), wk =   0.0072709
        k(  143) = (   0.0000000   0.0000000   0.3130452), wk =   0.0073221
        k(  144) = (   0.0000000   0.0000000   0.3266558), wk =   0.0073733
        k(  145) = (   0.0000000   0.0000000   0.3402665), wk =   0.0074245
        k(  146) = (   0.0000000   0.0000000   0.3538772), wk =   0.0074757
        k(  147) = (   0.0000000   0.0000000   0.3674878), wk =   0.0075269
        k(  148) = (   0.0000000   0.0000000   0.3810985), wk =   0.0075781
        k(  149) = (   0.0000000   0.0000000   0.3947091), wk =   0.0076293
        k(  150) = (   0.0000000   0.0000000   0.4083198), wk =   0.0076805
        k(  151) = (   0.0000000   0.0000000   0.4219305), wk =   0.0077317
        k(  152) = (   0.0000000   0.0000000   0.4355411), wk =   0.0077829
        k(  153) = (   0.0000000   0.0000000   0.4491518), wk =   0.0078341
        k(  154) = (   0.0000000   0.0000000   0.4627624), wk =   0.0078853
        k(  155) = (   0.0000000   0.0000000   0.4763731), wk =   0.0079365
        k(  156) = (   0.0000000   0.0000000   0.4899838), wk =   0.0079877
        k(  157) = (   0.0000000   0.0000000   0.5035944), wk =   0.0080389
        k(  158) = (   0.0000000   0.0000000   0.5172051), wk =   0.0080901
        k(  159) = (   0.0000000   0.0000000   0.5308157), wk =   0.0081413
        k(  160) = (   0.0000000   0.0000000   0.5444264), wk =   0.0081925
        k(  161) = (   0.0250000   0.0000000   0.5444264), wk =   0.0082437
        k(  162) = (   0.0500000   0.0000000   0.5444264), wk =   0.0082949
        k(  163) = (   0.0750000   0.0000000   0.5444264), wk =   0.0083461
        k(  164) = (   0.1000000   0.0000000   0.5444264), wk =   0.0083973
        k(  165) = (   0.1250000   0.0000000   0.5444264), wk =   0.0084485
        k(  166) = (   0.1500000   0.0000000   0.5444264), wk =   0.0084997
        k(  167) = (   0.1750000   0.0000000   0.5444264), wk =   0.0085509
        k(  168) = (   0.2000000   0.0000000   0.5444264), wk =   0.0086022
        k(  169) = (   0.2250000   0.0000000   0.5444264), wk =   0.0086534
        k(  170) = (   0.2500000   0.0000000   0.5444264), wk =   0.0087046
        k(  171) = (   0.2750000   0.0000000   0.5444264), wk =   0.0087558
        k(  172) = (   0.3000000   0.0000000   0.5444264), wk =   0.0088070
        k(  173) = (   0.3250000   0.0000000   0.5444264), wk =   0.0088582
        k(  174) = (   0.3500000   0.0000000   0.5444264), wk =   0.0089094
        k(  175) = (   0.3750000   0.0000000   0.5444264), wk =   0.0089606
        k(  176) = (   0.4000000   0.0000000   0.5444264), wk =   0.0090118
        k(  177) = (   0.4250000   0.0000000   0.5444264), wk =   0.0090630
        k(  178) = (   0.4500000   0.0000000   0.5444264), wk =   0.0091142
        k(  179) = (   0.4750000   0.0000000   0.5444264), wk =   0.0091654
        k(  180) = (   0.5000000   0.0000000   0.5444264), wk =   0.0092166
        k(  181) = (   0.5250000   0.0000000   0.5444264), wk =   0.0092678
        k(  182) = (   0.5500000   0.0000000   0.5444264), wk =   0.0093190
        k(  183) = (   0.5750000   0.0000000   0.5444264), wk =   0.0093702
        k(  184) = (   0.6000000   0.0000000   0.5444264), wk =   0.0094214
        k(  185) = (   0.6250000   0.0000000   0.5444264), wk =   0.0094726
        k(  186) = (   0.6500000   0.0000000   0.5444264), wk =   0.0095238
        k(  187) = (  -0.3250000   0.5773503   0.5444264), wk =   0.0095750
        k(  188) = (  -0.3000000   0.5773503   0.5444264), wk =   0.0096262
        k(  189) = (  -0.2750000   0.5773503   0.5444264), wk =   0.0096774
        k(  190) = (  -0.2500000   0.5773503   0.5444264), wk =   0.0097286
        k(  191) = (  -0.2250000   0.5773503   0.5444264), wk =   0.0097798
        k(  192) = (  -0.2000000   0.5773503   0.5444264), wk =   0.0098310
        k(  193) = (  -0.1750000   0.5773503   0.5444264), wk =   0.0098822
        k(  194) = (  -0.1500000   0.5773503   0.5444264), wk =   0.0099334
        k(  195) = (  -0.1250000   0.5773503   0.5444264), wk =   0.0099846
        k(  196) = (  -0.1000000   0.5773503   0.5444264), wk =   0.0100358
        k(  197) = (  -0.0750000   0.5773503   0.5444264), wk =   0.0100870
        k(  198) = (  -0.0500000   0.5773503   0.5444264), wk =   0.0101382
        k(  199) = (  -0.0250000   0.5773503   0.5444264), wk =   0.0101895
        k(  200) = (   0.0000000   0.5773503   0.5444264), wk =   0.0102407
        k(  201) = (  -0.0000025  -0.5629180   0.5444264), wk =   0.0102919
        k(  202) = (  -0.0000050  -0.5484856   0.5444264), wk =   0.0103431
        k(  203) = (  -0.0000075  -0.5340533   0.5444264), wk =   0.0103943
        k(  204) = (  -0.0000100  -0.5196210   0.5444264), wk =   0.0104455
        k(  205) = (  -0.0000125  -0.5051887   0.5444264), wk =   0.0104967
        k(  206) = (  -0.0000150  -0.4907564   0.5444264), wk =   0.0105479
        k(  207) = (  -0.0000175  -0.4763241   0.5444264), wk =   0.0105991
        k(  208) = (  -0.0000200  -0.4618918   0.5444264), wk =   0.0106503
        k(  209) = (  -0.0000225  -0.4474594   0.5444264), wk =   0.0107015
        k(  210) = (  -0.0000250  -0.4330271   0.5444264), wk =   0.0107527
        k(  211) = (  -0.0000275  -0.4185948   0.5444264), wk =   0.0108039
        k(  212) = (  -0.0000300  -0.4041625   0.5444264), wk =   0.0108551
        k(  213) = (  -0.0000325  -0.3897302   0.5444264), wk =   0.0109063
        k(  214) = (  -0.0000350  -0.3752979   0.5444264), wk =   0.0109575
        k(  215) = (  -0.0000375  -0.3608656   0.5444264), wk =   0.0110087
        k(  216) = (  -0.0000400  -0.3464333   0.5444264), wk =   0.0110599
        k(  217) = (  -0.0000425  -0.3320009   0.5444264), wk =   0.0111111
        k(  218) = (  -0.0000450  -0.3175686   0.5444264), wk =   0.0111623
        k(  219) = (  -0.0000475  -0.3031363   0.5444264), wk =   0.0112135
        k(  220) = (  -0.0000500  -0.2887040   0.5444264), wk =   0.0112647
        k(  221) = (  -0.0000525  -0.2742717   0.5444264), wk =   0.0113159
        k(  222) = (  -0.0000550  -0.2598394   0.5444264), wk =   0.0113671
        k(  223) = (  -0.0000575  -0.2454071   0.5444264), wk =   0.0114183
        k(  224) = (  -0.0000600  -0.2309747   0.5444264), wk =   0.0114695
        k(  225) = (  -0.0000625  -0.2165424   0.5444264), wk =   0.0115207
        k(  226) = (  -0.0000650  -0.2021101   0.5444264), wk =   0.0115719
        k(  227) = (  -0.0000675  -0.1876778   0.5444264), wk =   0.0116231
        k(  228) = (  -0.0000700  -0.1732455   0.5444264), wk =   0.0116743
        k(  229) = (  -0.0000725  -0.1588132   0.5444264), wk =   0.0117256
        k(  230) = (  -0.0000750  -0.1443809   0.5444264), wk =   0.0117768
        k(  231) = (  -0.0000775  -0.1299486   0.5444264), wk =   0.0118280
        k(  232) = (  -0.0000800  -0.1155162   0.5444264), wk =   0.0118792
        k(  233) = (  -0.0000825  -0.1010839   0.5444264), wk =   0.0119304
        k(  234) = (  -0.0000850  -0.0866516   0.5444264), wk =   0.0119816
        k(  235) = (  -0.0000875  -0.0722193   0.5444264), wk =   0.0120328
        k(  236) = (  -0.0000900  -0.0577870   0.5444264), wk =   0.0120840
        k(  237) = (  -0.0000925  -0.0433547   0.5444264), wk =   0.0121352
        k(  238) = (  -0.0000950  -0.0289224   0.5444264), wk =   0.0121864
        k(  239) = (  -0.0000975  -0.0144900   0.5444264), wk =   0.0122376
        k(  240) = (  -0.0001000  -0.0000577   0.5444264), wk =   0.0122888
        k(  241) = (  -0.0250975  -0.0144900   0.5444264), wk =   0.0123400
        k(  242) = (  -0.0500950  -0.0289224   0.5444264), wk =   0.0123912
        k(  243) = (  -0.0750925  -0.0433547   0.5444264), wk =   0.0124424
        k(  244) = (  -0.1000900  -0.0577870   0.5444264), wk =   0.0124936
        k(  245) = (  -0.1250875  -0.0722193   0.5444264), wk =   0.0125448
        k(  246) = (  -0.1500850  -0.0866516   0.5444264), wk =   0.0125960
        k(  247) = (  -0.1750825  -0.1010839   0.5444264), wk =   0.0126472
        k(  248) = (  -0.2000800  -0.1155162   0.5444264), wk =   0.0126984
        k(  249) = (  -0.2250775  -0.1299486   0.5444264), wk =   0.0127496
        k(  250) = (  -0.2500750  -0.1443809   0.5444264), wk =   0.0128008
        k(  251) = (  -0.2750725  -0.1588132   0.5444264), wk =   0.0128520
        k(  252) = (  -0.3000700  -0.1732455   0.5444264), wk =   0.0129032
        k(  253) = (  -0.3250675  -0.1876778   0.5444264), wk =   0.0129544
        k(  254) = (  -0.3500650  -0.2021101   0.5444264), wk =   0.0130056
        k(  255) = (  -0.3750625  -0.2165424   0.5444264), wk =   0.0130568
        k(  256) = (  -0.4000600  -0.2309747   0.5444264), wk =   0.0131080
        k(  257) = (  -0.4250575  -0.2454071   0.5444264), wk =   0.0131592
        k(  258) = (  -0.4500550  -0.2598394   0.5444264), wk =   0.0132104
        k(  259) = (  -0.4750525  -0.2742717   0.5444264), wk =   0.0132616
        k(  260) = (   0.4999500   0.2886463   0.5444264), wk =   0.0133129
        k(  261) = (   0.4749525   0.2742140   0.5444264), wk =   0.0133641
        k(  262) = (   0.4499550   0.2597816   0.5444264), wk =   0.0134153
        k(  263) = (   0.4249575   0.2453493   0.5444264), wk =   0.0134665
        k(  264) = (   0.3999600   0.2309170   0.5444264), wk =   0.0135177
        k(  265) = (   0.3749625   0.2164847   0.5444264), wk =   0.0135689
        k(  266) = (   0.3499650   0.2020524   0.5444264), wk =   0.0136201
        k(  267) = (   0.3249675   0.1876201   0.5444264), wk =   0.0136713
        k(  268) = (   0.2999700   0.1731878   0.5444264), wk =   0.0137225
        k(  269) = (   0.2749725   0.1587554   0.5444264), wk =   0.0137737
        k(  270) = (   0.2499750   0.1443231   0.5444264), wk =   0.0138249
        k(  271) = (   0.2249775   0.1298908   0.5444264), wk =   0.0138761
        k(  272) = (   0.1999800   0.1154585   0.5444264), wk =   0.0139273
        k(  273) = (   0.1749825   0.1010262   0.5444264), wk =   0.0139785
        k(  274) = (   0.1499850   0.0865939   0.5444264), wk =   0.0140297
        k(  275) = (   0.1249875   0.0721616   0.5444264), wk =   0.0140809
        k(  276) = (   0.0999900   0.0577293   0.5444264), wk =   0.0141321
        k(  277) = (   0.0749925   0.0432969   0.5444264), wk =   0.0141833
        k(  278) = (   0.0499950   0.0288646   0.5444264), wk =   0.0142345
        k(  279) = (   0.0249975   0.0144323   0.5444264), wk =   0.0142857

                       cryst. coord.
        k(    1) = (   0.0000000   0.0000000   0.0000000), wk =   0.0000512
        k(    2) = (   0.0250000  -0.0125000   0.0000000), wk =   0.0001024
        k(    3) = (   0.0500000  -0.0250000   0.0000000), wk =   0.0001536
        k(    4) = (   0.0750000  -0.0375000   0.0000000), wk =   0.0002048
        k(    5) = (   0.1000000  -0.0500000   0.0000000), wk =   0.0002560
        k(    6) = (   0.1250000  -0.0625000   0.0000000), wk =   0.0003072
        k(    7) = (   0.1500000  -0.0750000   0.0000000), wk =   0.0003584
        k(    8) = (   0.1750000  -0.0875000   0.0000000), wk =   0.0004096
        k(    9) = (   0.2000000  -0.1000000   0.0000000), wk =   0.0004608
        k(   10) = (   0.2250000  -0.1125000   0.0000000), wk =   0.0005120
        k(   11) = (   0.2500000  -0.1250000   0.0000000), wk =   0.0005632
        k(   12) = (   0.2750000  -0.1375000   0.0000000), wk =   0.0006144
        k(   13) = (   0.3000000  -0.1500000   0.0000000), wk =   0.0006656
        k(   14) = (   0.3250000  -0.1625000   0.0000000), wk =   0.0007168
        k(   15) = (   0.3500000  -0.1750000   0.0000000), wk =   0.0007680
        k(   16) = (   0.3750000  -0.1875000   0.0000000), wk =   0.0008193
        k(   17) = (   0.4000000  -0.2000000   0.0000000), wk =   0.0008705
        k(   18) = (   0.4250000  -0.2125000   0.0000000), wk =   0.0009217
        k(   19) = (   0.4500000  -0.2250000   0.0000000), wk =   0.0009729
        k(   20) = (   0.4750000  -0.2375000   0.0000000), wk =   0.0010241
        k(   21) = (   0.5000000  -0.2500000   0.0000000), wk =   0.0010753
        k(   22) = (   0.5250000  -0.2625000   0.0000000), wk =   0.0011265
        k(   23) = (   0.5500000  -0.2750000   0.0000000), wk =   0.0011777
        k(   24) = (   0.5750000  -0.2875000   0.0000000), wk =   0.0012289
        k(   25) = (   0.6000000  -0.3000000   0.0000000), wk =   0.0012801
        k(   26) = (   0.6250000  -0.3125000   0.0000000), wk =   0.0013313
        k(   27) = (   0.6500000  -0.3250000   0.0000000), wk =   0.0013825
        k(   28) = (  -0.3250000   0.6625000   0.0000000), wk =   0.0014337
        k(   29) = (  -0.3000000   0.6500000   0.0000000), wk =   0.0014849
        k(   30) = (  -0.2750000   0.6375000   0.0000000), wk =   0.0015361
        k(   31) = (  -0.2500000   0.6250000   0.0000000), wk =   0.0015873
        k(   32) = (  -0.2250000   0.6125000   0.0000000), wk =   0.0016385
        k(   33) = (  -0.2000000   0.6000000   0.0000000), wk =   0.0016897
        k(   34) = (  -0.1750000   0.5875000   0.0000000), wk =   0.0017409
        k(   35) = (  -0.1500000   0.5750000   0.0000000), wk =   0.0017921
        k(   36) = (  -0.1250000   0.5625000   0.0000000), wk =   0.0018433
        k(   37) = (  -0.1000000   0.5500000   0.0000000), wk =   0.0018945
        k(   38) = (  -0.0750000   0.5375000   0.0000000), wk =   0.0019457
        k(   39) = (  -0.0500000   0.5250000   0.0000000), wk =   0.0019969
        k(   40) = (  -0.0250000   0.5125000   0.0000000), wk =   0.0020481
        k(   41) = (   0.0000000   0.5000000   0.0000000), wk =   0.0020993
        k(   42) = (  -0.0000025  -0.4875000   0.0000000), wk =   0.0021505
        k(   43) = (  -0.0000050  -0.4750000   0.0000000), wk =   0.0022017
        k(   44) = (  -0.0000075  -0.4625000   0.0000000), wk =   0.0022529
        k(   45) = (  -0.0000100  -0.4500000   0.0000000), wk =   0.0023041
        k(   46) = (  -0.0000125  -0.4375000   0.0000000), wk =   0.0023554
        k(   47) = (  -0.0000150  -0.4250000   0.0000000), wk =   0.0024066
        k(   48) = (  -0.0000175  -0.4125000   0.0000000), wk =   0.0024578
        k(   49) = (  -0.0000200  -0.4000000   0.0000000), wk =   0.0025090
        k(   50) = (  -0.0000225  -0.3875000   0.0000000), wk =   0.0025602
        k(   51) = (  -0.0000250  -0.3750000   0.0000000), wk =   0.0026114
        k(   52) = (  -0.0000275  -0.3625000   0.0000000), wk =   0.0026626
        k(   53) = (  -0.0000300  -0.3500000   0.0000000), wk =   0.0027138
        k(   54) = (  -0.0000325  -0.3375000   0.0000000), wk =   0.0027650
        k(   55) = (  -0.0000350  -0.3250000   0.0000000), wk =   0.0028162
        k(   56) = (  -0.0000375  -0.3125000   0.0000000), wk =   0.0028674
        k(   57) = (  -0.0000400  -0.3000000   0.0000000), wk =   0.0029186
        k(   58) = (  -0.0000425  -0.2875000   0.0000000), wk =   0.0029698
        k(   59) = (  -0.0000450  -0.2750000   0.0000000), wk =   0.0030210
        k(   60) = (  -0.0000475  -0.2625000   0.0000000), wk =   0.0030722
        k(   61) = (  -0.0000500  -0.2500000   0.0000000), wk =   0.0031234
        k(   62) = (  -0.0000525  -0.2375000   0.0000000), wk =   0.0031746
        k(   63) = (  -0.0000550  -0.2250000   0.0000000), wk =   0.0032258
        k(   64) = (  -0.0000575  -0.2125000   0.0000000), wk =   0.0032770
        k(   65) = (  -0.0000600  -0.2000000   0.0000000), wk =   0.0033282
        k(   66) = (  -0.0000625  -0.1875000   0.0000000), wk =   0.0033794
        k(   67) = (  -0.0000650  -0.1750000   0.0000000), wk =   0.0034306
        k(   68) = (  -0.0000675  -0.1625000   0.0000000), wk =   0.0034818
        k(   69) = (  -0.0000700  -0.1500000   0.0000000), wk =   0.0035330
        k(   70) = (  -0.0000725  -0.1375000   0.0000000), wk =   0.0035842
        k(   71) = (  -0.0000750  -0.1250000   0.0000000), wk =   0.0036354
        k(   72) = (  -0.0000775  -0.1125000   0.0000000), wk =   0.0036866
        k(   73) = (  -0.0000800  -0.1000000   0.0000000), wk =   0.0037378
        k(   74) = (  -0.0000825  -0.0875000   0.0000000), wk =   0.0037890
        k(   75) = (  -0.0000850  -0.0750000   0.0000000), wk =   0.0038402
        k(   76) = (  -0.0000875  -0.0625000   0.0000000), wk =   0.0038914
        k(   77) = (  -0.0000900  -0.0500000   0.0000000), wk =   0.0039427
        k(   78) = (  -0.0000925  -0.0375000   0.0000000), wk =   0.0039939
        k(   79) = (  -0.0000950  -0.0250000   0.0000000), wk =   0.0040451
        k(   80) = (  -0.0000975  -0.0125000   0.0000000), wk =   0.0040963
        k(   81) = (  -0.0001000   0.0000000   0.0000000), wk =   0.0041475
        k(   82) = (  -0.0250975   0.0000000   0.0000000), wk =   0.0041987
        k(   83) = (  -0.0500950  -0.0000000   0.0000000), wk =   0.0042499
        k(   84) = (  -0.0750925  -0.0000000   0.0000000), wk =   0.0043011
        k(   85) = (  -0.1000900  -0.0000000   0.0000000), wk =   0.0043523
        k(   86) = (  -0.1250875   0.0000000   0.0000000), wk =   0.0044035
        k(   87) = (  -0.1500850   0.0000000   0.0000000), wk =   0.0044547
        k(   88) = (  -0.1750825   0.0000000   0.0000000), wk =   0.0045059
        k(   89) = (  -0.2000800   0.0000000   0.0000000), wk =   0.0045571
        k(   90) = (  -0.2250775  -0.0000000   0.0000000), wk =   0.0046083
        k(   91) = (  -0.2500750  -0.0000000   0.0000000), wk =   0.0046595
        k(   92) = (  -0.2750725  -0.0000000   0.0000000), wk =   0.0047107
        k(   93) = (  -0.3000700  -0.0000000   0.0000000), wk =   0.0047619
        k(   94) = (  -0.3250675   0.0000000   0.0000000), wk =   0.0048131
        k(   95) = (  -0.3500650   0.0000000   0.0000000), wk =   0.0048643
        k(   96) = (  -0.3750625   0.0000000   0.0000000), wk =   0.0049155
        k(   97) = (  -0.4000600   0.0000000   0.0000000), wk =   0.0049667
        k(   98) = (  -0.4250575  -0.0000000   0.0000000), wk =   0.0050179
        k(   99) = (  -0.4500550  -0.0000000   0.0000000), wk =   0.0050691
        k(  100) = (  -0.4750525  -0.0000000   0.0000000), wk =   0.0051203
        k(  101) = (   0.4999500   0.0000000   0.0000000), wk =   0.0051715
        k(  102) = (   0.4749525   0.0000000   0.0000000), wk =   0.0052227
        k(  103) = (   0.4499550  -0.0000000   0.0000000), wk =   0.0052739
        k(  104) = (   0.4249575  -0.0000000   0.0000000), wk =   0.0053251
        k(  105) = (   0.3999600  -0.0000000   0.0000000), wk =   0.0053763
        k(  106) = (   0.3749625  -0.0000000   0.0000000), wk =   0.0054275
        k(  107) = (   0.3499650   0.0000000   0.0000000), wk =   0.0054788
        k(  108) = (   0.3249675   0.0000000   0.0000000), wk =   0.0055300
        k(  109) = (   0.2999700   0.0000000   0.0000000), wk =   0.0055812
        k(  110) = (   0.2749725  -0.0000000   0.0000000), wk =   0.0056324
        k(  111) = (   0.2499750  -0.0000000   0.0000000), wk =   0.0056836
        k(  112) = (   0.2249775  -0.0000000   0.0000000), wk =   0.0057348
        k(  113) = (   0.1999800  -0.0000000   0.0000000), wk =   0.0057860
        k(  114) = (   0.1749825   0.0000000   0.0000000), wk =   0.0058372
        k(  115) = (   0.1499850   0.0000000   0.0000000), wk =   0.0058884
        k(  116) = (   0.1249875   0.0000000   0.0000000), wk =   0.0059396
        k(  117) = (   0.0999900   0.0000000   0.0000000), wk =   0.0059908
        k(  118) = (   0.0749925  -0.0000000   0.0000000), wk =   0.0060420
        k(  119) = (   0.0499950  -0.0000000   0.0000000), wk =   0.0060932
        k(  120) = (   0.0249975  -0.0000000   0.0000000), wk =   0.0061444
        k(  121) = (   0.0000000   0.0000000   0.0125000), wk =   0.0061956
        k(  122) = (   0.0000000   0.0000000   0.0250000), wk =   0.0062468
        k(  123) = (   0.0000000   0.0000000   0.0375000), wk =   0.0062980
        k(  124) = (   0.0000000   0.0000000   0.0500000), wk =   0.0063492
        k(  125) = (   0.0000000   0.0000000   0.0625000), wk =   0.0064004
        k(  126) = (   0.0000000   0.0000000   0.0750000), wk =   0.0064516
        k(  127) = (   0.0000000   0.0000000   0.0875000), wk =   0.0065028
        k(  128) = (   0.0000000   0.0000000   0.1000000), wk =   0.0065540
        k(  129) = (   0.0000000   0.0000000   0.1125000), wk =   0.0066052
        k(  130) = (   0.0000000   0.0000000   0.1250000), wk =   0.0066564
        k(  131) = (   0.0000000   0.0000000   0.1375000), wk =   0.0067076
        k(  132) = (   0.0000000   0.0000000   0.1500000), wk =   0.0067588
        k(  133) = (   0.0000000   0.0000000   0.1625000), wk =   0.0068100
        k(  134) = (   0.0000000   0.0000000   0.1750000), wk =   0.0068612
        k(  135) = (   0.0000000   0.0000000   0.1875000), wk =   0.0069124
        k(  136) = (   0.0000000   0.0000000   0.2000000), wk =   0.0069636
        k(  137) = (   0.0000000   0.0000000   0.2125000), wk =   0.0070148
        k(  138) = (   0.0000000   0.0000000   0.2250000), wk =   0.0070661
        k(  139) = (   0.0000000   0.0000000   0.2375000), wk =   0.0071173
        k(  140) = (   0.0000000   0.0000000   0.2500000), wk =   0.0071685
        k(  141) = (   0.0000000   0.0000000   0.2625000), wk =   0.0072197
        k(  142) = (   0.0000000   0.0000000   0.2750000), wk =   0.0072709
        k(  143) = (   0.0000000   0.0000000   0.2875000), wk =   0.0073221
        k(  144) = (   0.0000000   0.0000000   0.3000000), wk =   0.0073733
        k(  145) = (   0.0000000   0.0000000   0.3125000), wk =   0.0074245
        k(  146) = (   0.0000000   0.0000000   0.3250000), wk =   0.0074757
        k(  147) = (   0.0000000   0.0000000   0.3375000), wk =   0.0075269
        k(  148) = (   0.0000000   0.0000000   0.3500000), wk =   0.0075781
        k(  149) = (   0.0000000   0.0000000   0.3625000), wk =   0.0076293
        k(  150) = (   0.0000000   0.0000000   0.3750000), wk =   0.0076805
        k(  151) = (   0.0000000   0.0000000   0.3875000), wk =   0.0077317
        k(  152) = (   0.0000000   0.0000000   0.4000000), wk =   0.0077829
        k(  153) = (   0.0000000   0.0000000   0.4125000), wk =   0.0078341
        k(  154) = (   0.0000000   0.0000000   0.4250000), wk =   0.0078853
        k(  155) = (   0.0000000   0.0000000   0.4375000), wk =   0.0079365
        k(  156) = (   0.0000000   0.0000000   0.4500000), wk =   0.0079877
        k(  157) = (   0.0000000   0.0000000   0.4625000), wk =   0.0080389
        k(  158) = (   0.0000000   0.0000000   0.4750000), wk =   0.0080901
        k(  159) = (   0.0000000   0.0000000   0.4875000), wk =   0.0081413
        k(  160) = (   0.0000000   0.0000000   0.5000000), wk =   0.0081925
        k(  161) = (   0.0250000  -0.0125000   0.5000000), wk =   0.0082437
        k(  162) = (   0.0500000  -0.0250000   0.5000000), wk =   0.0082949
        k(  163) = (   0.0750000  -0.0375000   0.5000000), wk =   0.0083461
        k(  164) = (   0.1000000  -0.0500000   0.5000000), wk =   0.0083973
        k(  165) = (   0.1250000  -0.0625000   0.5000000), wk =   0.0084485
        k(  166) = (   0.1500000  -0.0750000   0.5000000), wk =   0.0084997
        k(  167) = (   0.1750000  -0.0875000   0.5000000), wk =   0.0085509
        k(  168) = (   0.2000000  -0.1000000   0.5000000), wk =   0.0086022
        k(  169) = (   0.2250000  -0.1125000   0.5000000), wk =   0.0086534
        k(  170) = (   0.2500000  -0.1250000   0.5000000), wk =   0.0087046
        k(  171) = (   0.2750000  -0.1375000   0.5000000), wk =   0.0087558
        k(  172) = (   0.3000000  -0.1500000   0.5000000), wk =   0.0088070
        k(  173) = (   0.3250000  -0.1625000   0.5000000), wk =   0.0088582
        k(  174) = (   0.3500000  -0.1750000   0.5000000), wk =   0.0089094
        k(  175) = (   0.3750000  -0.1875000   0.5000000), wk =   0.0089606
        k(  176) = (   0.4000000  -0.2000000   0.5000000), wk =   0.0090118
        k(  177) = (   0.4250000  -0.2125000   0.5000000), wk =   0.0090630
        k(  178) = (   0.4500000  -0.2250000   0.5000000), wk =   0.0091142
        k(  179) = (   0.4750000  -0.2375000   0.5000000), wk =   0.0091654
        k(  180) = (   0.5000000  -0.2500000   0.5000000), wk =   0.0092166
        k(  181) = (   0.5250000  -0.2625000   0.5000000), wk =   0.0092678
        k(  182) = (   0.5500000  -0.2750000   0.5000000), wk =   0.0093190
        k(  183) = (   0.5750000  -0.2875000   0.5000000), wk =   0.0093702
        k(  184) = (   0.6000000  -0.3000000   0.5000000), wk =   0.0094214
        k(  185) = (   0.6250000  -0.3125000   0.5000000), wk =   0.0094726
        k(  186) = (   0.6500000  -0.3250000   0.5000000), wk =   0.0095238
        k(  187) = (  -0.3250000   0.6625000   0.5000000), wk =   0.0095750
        k(  188) = (  -0.3000000   0.6500000   0.5000000), wk =   0.0096262
        k(  189) = (  -0.2750000   0.6375000   0.5000000), wk =   0.0096774
        k(  190) = (  -0.2500000   0.6250000   0.5000000), wk =   0.0097286
        k(  191) = (  -0.2250000   0.6125000   0.5000000), wk =   0.0097798
        k(  192) = (  -0.2000000   0.6000000   0.5000000), wk =   0.0098310
        k(  193) = (  -0.1750000   0.5875000   0.5000000), wk =   0.0098822
        k(  194) = (  -0.1500000   0.5750000   0.5000000), wk =   0.0099334
        k(  195) = (  -0.1250000   0.5625000   0.5000000), wk =   0.0099846
        k(  196) = (  -0.1000000   0.5500000   0.5000000), wk =   0.0100358
        k(  197) = (  -0.0750000   0.5375000   0.5000000), wk =   0.0100870
        k(  198) = (  -0.0500000   0.5250000   0.5000000), wk =   0.0101382
        k(  199) = (  -0.0250000   0.5125000   0.5000000), wk =   0.0101895
        k(  200) = (   0.0000000   0.5000000   0.5000000), wk =   0.0102407
        k(  201) = (  -0.0000025  -0.4875000   0.5000000), wk =   0.0102919
        k(  202) = (  -0.0000050  -0.4750000   0.5000000), wk =   0.0103431
        k(  203) = (  -0.0000075  -0.4625000   0.5000000), wk =   0.0103943
        k(  204) = (  -0.0000100  -0.4500000   0.5000000), wk =   0.0104455
        k(  205) = (  -0.0000125  -0.4375000   0.5000000), wk =   0.0104967
        k(  206) = (  -0.0000150  -0.4250000   0.5000000), wk =   0.0105479
        k(  207) = (  -0.0000175  -0.4125000   0.5000000), wk =   0.0105991
        k(  208) = (  -0.0000200  -0.4000000   0.5000000), wk =   0.0106503
        k(  209) = (  -0.0000225  -0.3875000   0.5000000), wk =   0.0107015
        k(  210) = (  -0.0000250  -0.3750000   0.5000000), wk =   0.0107527
        k(  211) = (  -0.0000275  -0.3625000   0.5000000), wk =   0.0108039
        k(  212) = (  -0.0000300  -0.3500000   0.5000000), wk =   0.0108551
        k(  213) = (  -0.0000325  -0.3375000   0.5000000), wk =   0.0109063
        k(  214) = (  -0.0000350  -0.3250000   0.5000000), wk =   0.0109575
        k(  215) = (  -0.0000375  -0.3125000   0.5000000), wk =   0.0110087
        k(  216) = (  -0.0000400  -0.3000000   0.5000000), wk =   0.0110599
        k(  217) = (  -0.0000425  -0.2875000   0.5000000), wk =   0.0111111
        k(  218) = (  -0.0000450  -0.2750000   0.5000000), wk =   0.0111623
        k(  219) = (  -0.0000475  -0.2625000   0.5000000), wk =   0.0112135
        k(  220) = (  -0.0000500  -0.2500000   0.5000000), wk =   0.0112647
        k(  221) = (  -0.0000525  -0.2375000   0.5000000), wk =   0.0113159
        k(  222) = (  -0.0000550  -0.2250000   0.5000000), wk =   0.0113671
        k(  223) = (  -0.0000575  -0.2125000   0.5000000), wk =   0.0114183
        k(  224) = (  -0.0000600  -0.2000000   0.5000000), wk =   0.0114695
        k(  225) = (  -0.0000625  -0.1875000   0.5000000), wk =   0.0115207
        k(  226) = (  -0.0000650  -0.1750000   0.5000000), wk =   0.0115719
        k(  227) = (  -0.0000675  -0.1625000   0.5000000), wk =   0.0116231
        k(  228) = (  -0.0000700  -0.1500000   0.5000000), wk =   0.0116743
        k(  229) = (  -0.0000725  -0.1375000   0.5000000), wk =   0.0117256
        k(  230) = (  -0.0000750  -0.1250000   0.5000000), wk =   0.0117768
        k(  231) = (  -0.0000775  -0.1125000   0.5000000), wk =   0.0118280
        k(  232) = (  -0.0000800  -0.1000000   0.5000000), wk =   0.0118792
        k(  233) = (  -0.0000825  -0.0875000   0.5000000), wk =   0.0119304
        k(  234) = (  -0.0000850  -0.0750000   0.5000000), wk =   0.0119816
        k(  235) = (  -0.0000875  -0.0625000   0.5000000), wk =   0.0120328
        k(  236) = (  -0.0000900  -0.0500000   0.5000000), wk =   0.0120840
        k(  237) = (  -0.0000925  -0.0375000   0.5000000), wk =   0.0121352
        k(  238) = (  -0.0000950  -0.0250000   0.5000000), wk =   0.0121864
        k(  239) = (  -0.0000975  -0.0125000   0.5000000), wk =   0.0122376
        k(  240) = (  -0.0001000   0.0000000   0.5000000), wk =   0.0122888
        k(  241) = (  -0.0250975   0.0000000   0.5000000), wk =   0.0123400
        k(  242) = (  -0.0500950  -0.0000000   0.5000000), wk =   0.0123912
        k(  243) = (  -0.0750925  -0.0000000   0.5000000), wk =   0.0124424
        k(  244) = (  -0.1000900  -0.0000000   0.5000000), wk =   0.0124936
        k(  245) = (  -0.1250875   0.0000000   0.5000000), wk =   0.0125448
        k(  246) = (  -0.1500850   0.0000000   0.5000000), wk =   0.0125960
        k(  247) = (  -0.1750825   0.0000000   0.5000000), wk =   0.0126472
        k(  248) = (  -0.2000800   0.0000000   0.5000000), wk =   0.0126984
        k(  249) = (  -0.2250775  -0.0000000   0.5000000), wk =   0.0127496
        k(  250) = (  -0.2500750  -0.0000000   0.5000000), wk =   0.0128008
        k(  251) = (  -0.2750725  -0.0000000   0.5000000), wk =   0.0128520
        k(  252) = (  -0.3000700  -0.0000000   0.5000000), wk =   0.0129032
        k(  253) = (  -0.3250675   0.0000000   0.5000000), wk =   0.0129544
        k(  254) = (  -0.3500650   0.0000000   0.5000000), wk =   0.0130056
        k(  255) = (  -0.3750625   0.0000000   0.5000000), wk =   0.0130568
        k(  256) = (  -0.4000600   0.0000000   0.5000000), wk =   0.0131080
        k(  257) = (  -0.4250575  -0.0000000   0.5000000), wk =   0.0131592
        k(  258) = (  -0.4500550  -0.0000000   0.5000000), wk =   0.0132104
        k(  259) = (  -0.4750525  -0.0000000   0.5000000), wk =   0.0132616
        k(  260) = (   0.4999500   0.0000000   0.5000000), wk =   0.0133129
        k(  261) = (   0.4749525   0.0000000   0.5000000), wk =   0.0133641
        k(  262) = (   0.4499550  -0.0000000   0.5000000), wk =   0.0134153
        k(  263) = (   0.4249575  -0.0000000   0.5000000), wk =   0.0134665
        k(  264) = (   0.3999600  -0.0000000   0.5000000), wk =   0.0135177
        k(  265) = (   0.3749625  -0.0000000   0.5000000), wk =   0.0135689
        k(  266) = (   0.3499650   0.0000000   0.5000000), wk =   0.0136201
        k(  267) = (   0.3249675   0.0000000   0.5000000), wk =   0.0136713
        k(  268) = (   0.2999700   0.0000000   0.5000000), wk =   0.0137225
        k(  269) = (   0.2749725  -0.0000000   0.5000000), wk =   0.0137737
        k(  270) = (   0.2499750  -0.0000000   0.5000000), wk =   0.0138249
        k(  271) = (   0.2249775  -0.0000000   0.5000000), wk =   0.0138761
        k(  272) = (   0.1999800  -0.0000000   0.5000000), wk =   0.0139273
        k(  273) = (   0.1749825   0.0000000   0.5000000), wk =   0.0139785
        k(  274) = (   0.1499850   0.0000000   0.5000000), wk =   0.0140297
        k(  275) = (   0.1249875   0.0000000   0.5000000), wk =   0.0140809
        k(  276) = (   0.0999900   0.0000000   0.5000000), wk =   0.0141321
        k(  277) = (   0.0749925  -0.0000000   0.5000000), wk =   0.0141833
        k(  278) = (   0.0499950  -0.0000000   0.5000000), wk =   0.0142345
        k(  279) = (   0.0249975  -0.0000000   0.5000000), wk =   0.0142857

     Dense  grid:    87577 G-vectors     FFT dimensions: (  60,  60,  60)

     Dynamical RAM for                 wfc:       0.22 MB

     Dynamical RAM for     wfc (w. buffer):      31.26 MB

     Dynamical RAM for           str. fact:       0.06 MB

     Dynamical RAM for           local pot:       0.00 MB

     Dynamical RAM for          nlocal pot:       0.35 MB

     Dynamical RAM for                qrad:       2.49 MB

     Dynamical RAM for          rho,v,vnew:       0.25 MB

     Dynamical RAM for           G-vectors:       0.12 MB

     Dynamical RAM for          h,s,v(r/c):       0.75 MB

     Dynamical RAM for          <psi|beta>:       0.10 MB

     Dynamical RAM for                 psi:       0.44 MB

     Dynamical RAM for                hpsi:       0.44 MB

     Dynamical RAM for      wfcinit/wfcrot:       0.54 MB

     Estimated static dynamical RAM per process >      34.88 MB

     Estimated max dynamical RAM per process >      36.62 MB

     Estimated total dynamical RAM >       3.43 GB

     The potential is recalculated from file :
     ./SnS2.save/charge-density



     %%%%%%%%%%%%%%%%%%%%%%%%%%%%%%%%%%%%%%%%%%%%%%%%%%%%%%%%%%%%%%%%%%%%%%%%
     %                                                                      %
     % You are using vdW-DF, which was implemented by the Thonhauser group. %
     % Please cite the following two papers that made this development      %
     % possible and the two reviews that describe the various versions:     %
     %                                                                      %
     %   T. Thonhauser et al., PRL 115, 136402 (2015).                      %
     %   T. Thonhauser et al., PRB 76, 125112 (2007).                       %
     %   K. Berland et al., Rep. Prog. Phys. 78, 066501 (2015).             %
     %   D.C. Langreth et al., J. Phys.: Condens. Matter 21, 084203 (2009). %
     %                                                                      %
     %                                                                      %
     % If you are calculating the stress with vdW-DF, please also cite:     %
     %                                                                      %
     %   R. Sabatini et al., J. Phys.: Condens. Matter 24, 424209 (2012).   %
     %                                                                      %
     %%%%%%%%%%%%%%%%%%%%%%%%%%%%%%%%%%%%%%%%%%%%%%%%%%%%%%%%%%%%%%%%%%%%%%%%


     Carrying out vdW-DF run using the following parameters:
     Nqs    =  20  Npoints =  1024  r_max =  100.000
     q_mesh =  0.00001000  0.04494208  0.09755937  0.15916263
               0.23128650  0.31572767  0.41458969  0.53033537
               0.66584808  0.82450364  1.01025438  1.22772762
               1.48234092  1.78043706  2.12944203  2.53805004
               3.01644009  3.57652955  4.23227104  5.00000000


     -----------------------------------------------
     Non-local corr. energy    =       0.79420468 Ry
     -----------------------------------------------

     Starting wfcs are random

     Band Structure Calculation
     Davidson diagonalization with overlap

     Computing kpt #:     1  of   140 on this pool
     total cpu time spent up to now is        5.6 secs

     Computing kpt #:     2  of   140 on this pool
     total cpu time spent up to now is        7.2 secs

     Computing kpt #:     3  of   140 on this pool
     total cpu time spent up to now is        9.0 secs

     Computing kpt #:     4  of   140 on this pool
     total cpu time spent up to now is       10.8 secs

     Computing kpt #:     5  of   140 on this pool
     total cpu time spent up to now is       12.6 secs

     Computing kpt #:     6  of   140 on this pool
     total cpu time spent up to now is       14.2 secs

     Computing kpt #:     7  of   140 on this pool
     total cpu time spent up to now is       15.9 secs

     Computing kpt #:     8  of   140 on this pool
     total cpu time spent up to now is       17.5 secs

     Computing kpt #:     9  of   140 on this pool
     total cpu time spent up to now is       19.3 secs

     Computing kpt #:    10  of   140 on this pool
     c_bands:  1 eigenvalues not converged
     total cpu time spent up to now is       21.1 secs

     Computing kpt #:    11  of   140 on this pool
     total cpu time spent up to now is       22.8 secs

     Computing kpt #:    12  of   140 on this pool
     total cpu time spent up to now is       24.4 secs

     Computing kpt #:    13  of   140 on this pool
     total cpu time spent up to now is       25.9 secs

     Computing kpt #:    14  of   140 on this pool
     total cpu time spent up to now is       27.4 secs

     Computing kpt #:    15  of   140 on this pool
     total cpu time spent up to now is       28.9 secs

     Computing kpt #:    16  of   140 on this pool
     total cpu time spent up to now is       30.4 secs

     Computing kpt #:    17  of   140 on this pool
     total cpu time spent up to now is       31.9 secs

     Computing kpt #:    18  of   140 on this pool
     total cpu time spent up to now is       33.4 secs

     Computing kpt #:    19  of   140 on this pool
     total cpu time spent up to now is       34.8 secs

     Computing kpt #:    20  of   140 on this pool
     total cpu time spent up to now is       36.3 secs

     Computing kpt #:    21  of   140 on this pool
     total cpu time spent up to now is       38.1 secs

     Computing kpt #:    22  of   140 on this pool
     c_bands:  2 eigenvalues not converged
     total cpu time spent up to now is       40.0 secs

     Computing kpt #:    23  of   140 on this pool
     total cpu time spent up to now is       41.8 secs

     Computing kpt #:    24  of   140 on this pool
     total cpu time spent up to now is       43.6 secs

     Computing kpt #:    25  of   140 on this pool
     total cpu time spent up to now is       45.4 secs

     Computing kpt #:    26  of   140 on this pool
     total cpu time spent up to now is       63.8 secs

     Computing kpt #:    27  of   140 on this pool
     total cpu time spent up to now is       77.0 secs

     Computing kpt #:    28  of   140 on this pool
     total cpu time spent up to now is       91.8 secs

     Computing kpt #:    29  of   140 on this pool
     total cpu time spent up to now is      114.0 secs

     Computing kpt #:    30  of   140 on this pool
     total cpu time spent up to now is      122.8 secs

     Computing kpt #:    31  of   140 on this pool
     total cpu time spent up to now is      124.5 secs

     Computing kpt #:    32  of   140 on this pool
     total cpu time spent up to now is      126.0 secs

     Computing kpt #:    33  of   140 on this pool
     total cpu time spent up to now is      127.5 secs

     Computing kpt #:    34  of   140 on this pool
     total cpu time spent up to now is      128.9 secs

     Computing kpt #:    35  of   140 on this pool
     total cpu time spent up to now is      130.4 secs

     Computing kpt #:    36  of   140 on this pool
     total cpu time spent up to now is      131.9 secs

     Computing kpt #:    37  of   140 on this pool
     total cpu time spent up to now is      133.4 secs

     Computing kpt #:    38  of   140 on this pool
     total cpu time spent up to now is      134.9 secs

     Computing kpt #:    39  of   140 on this pool
     total cpu time spent up to now is      136.4 secs

     Computing kpt #:    40  of   140 on this pool
     total cpu time spent up to now is      137.8 secs

     Computing kpt #:    41  of   140 on this pool
     total cpu time spent up to now is      139.4 secs

     Computing kpt #:    42  of   140 on this pool
     total cpu time spent up to now is      140.9 secs

     Computing kpt #:    43  of   140 on this pool
     total cpu time spent up to now is      142.6 secs

     Computing kpt #:    44  of   140 on this pool
     total cpu time spent up to now is      144.3 secs

     Computing kpt #:    45  of   140 on this pool
     total cpu time spent up to now is      146.0 secs

     Computing kpt #:    46  of   140 on this pool
     total cpu time spent up to now is      147.9 secs

     Computing kpt #:    47  of   140 on this pool
     total cpu time spent up to now is      149.7 secs

     Computing kpt #:    48  of   140 on this pool
     total cpu time spent up to now is      151.4 secs

     Computing kpt #:    49  of   140 on this pool
     total cpu time spent up to now is      153.3 secs

     Computing kpt #:    50  of   140 on this pool
     total cpu time spent up to now is      155.2 secs

     Computing kpt #:    51  of   140 on this pool
     total cpu time spent up to now is      157.1 secs

     Computing kpt #:    52  of   140 on this pool
     total cpu time spent up to now is      159.0 secs

     Computing kpt #:    53  of   140 on this pool
     total cpu time spent up to now is      160.8 secs

     Computing kpt #:    54  of   140 on this pool
     total cpu time spent up to now is      162.5 secs

     Computing kpt #:    55  of   140 on this pool
     total cpu time spent up to now is      164.3 secs

     Computing kpt #:    56  of   140 on this pool
     total cpu time spent up to now is      166.2 secs

     Computing kpt #:    57  of   140 on this pool
     total cpu time spent up to now is      168.1 secs

     Computing kpt #:    58  of   140 on this pool
     total cpu time spent up to now is      169.9 secs

     Computing kpt #:    59  of   140 on this pool
     total cpu time spent up to now is      171.8 secs

     Computing kpt #:    60  of   140 on this pool
     total cpu time spent up to now is      173.6 secs

     Computing kpt #:    61  of   140 on this pool
     total cpu time spent up to now is      175.5 secs

     Computing kpt #:    62  of   140 on this pool
     total cpu time spent up to now is      177.4 secs

     Computing kpt #:    63  of   140 on this pool
     c_bands:  1 eigenvalues not converged
     total cpu time spent up to now is      179.3 secs

     Computing kpt #:    64  of   140 on this pool
     c_bands:  1 eigenvalues not converged
     total cpu time spent up to now is      181.1 secs

     Computing kpt #:    65  of   140 on this pool
     c_bands:  1 eigenvalues not converged
     total cpu time spent up to now is      182.9 secs

     Computing kpt #:    66  of   140 on this pool
     c_bands:  1 eigenvalues not converged
     total cpu time spent up to now is      184.8 secs

     Computing kpt #:    67  of   140 on this pool
     c_bands:  1 eigenvalues not converged
     total cpu time spent up to now is      186.7 secs

     Computing kpt #:    68  of   140 on this pool
     c_bands:  1 eigenvalues not converged
     total cpu time spent up to now is      188.5 secs

     Computing kpt #:    69  of   140 on this pool
     c_bands:  1 eigenvalues not converged
     total cpu time spent up to now is      190.4 secs

     Computing kpt #:    70  of   140 on this pool
     total cpu time spent up to now is      192.2 secs

     Computing kpt #:    71  of   140 on this pool
     c_bands:  1 eigenvalues not converged
     total cpu time spent up to now is      194.1 secs

     Computing kpt #:    72  of   140 on this pool
     total cpu time spent up to now is      195.8 secs

     Computing kpt #:    73  of   140 on this pool
     total cpu time spent up to now is      197.6 secs

     Computing kpt #:    74  of   140 on this pool
     total cpu time spent up to now is      199.3 secs

     Computing kpt #:    75  of   140 on this pool
     total cpu time spent up to now is      200.8 secs

     Computing kpt #:    76  of   140 on this pool
     total cpu time spent up to now is      202.5 secs

     Computing kpt #:    77  of   140 on this pool
     total cpu time spent up to now is      204.0 secs

     Computing kpt #:    78  of   140 on this pool
     total cpu time spent up to now is      205.5 secs

     Computing kpt #:    79  of   140 on this pool
     total cpu time spent up to now is      207.0 secs

     Computing kpt #:    80  of   140 on this pool
     total cpu time spent up to now is      208.5 secs

     Computing kpt #:    81  of   140 on this pool
     total cpu time spent up to now is      210.0 secs

     Computing kpt #:    82  of   140 on this pool
     total cpu time spent up to now is      211.5 secs

     Computing kpt #:    83  of   140 on this pool
     total cpu time spent up to now is      213.1 secs

     Computing kpt #:    84  of   140 on this pool
     total cpu time spent up to now is      214.7 secs

     Computing kpt #:    85  of   140 on this pool
     total cpu time spent up to now is      216.5 secs

     Computing kpt #:    86  of   140 on this pool
     total cpu time spent up to now is      218.4 secs

     Computing kpt #:    87  of   140 on this pool
     c_bands:  1 eigenvalues not converged
     total cpu time spent up to now is      220.3 secs

     Computing kpt #:    88  of   140 on this pool
     c_bands:  1 eigenvalues not converged
     total cpu time spent up to now is      222.2 secs

     Computing kpt #:    89  of   140 on this pool
     c_bands:  1 eigenvalues not converged
     total cpu time spent up to now is      224.0 secs

     Computing kpt #:    90  of   140 on this pool
     c_bands:  1 eigenvalues not converged
     total cpu time spent up to now is      225.9 secs

     Computing kpt #:    91  of   140 on this pool
     total cpu time spent up to now is      227.7 secs

     Computing kpt #:    92  of   140 on this pool
     total cpu time spent up to now is      229.5 secs

     Computing kpt #:    93  of   140 on this pool
     total cpu time spent up to now is      231.3 secs

     Computing kpt #:    94  of   140 on this pool
     total cpu time spent up to now is      233.2 secs

     Computing kpt #:    95  of   140 on this pool
     total cpu time spent up to now is      235.0 secs

     Computing kpt #:    96  of   140 on this pool
     total cpu time spent up to now is      236.9 secs

     Computing kpt #:    97  of   140 on this pool
     total cpu time spent up to now is      238.7 secs

     Computing kpt #:    98  of   140 on this pool
     total cpu time spent up to now is      240.5 secs

     Computing kpt #:    99  of   140 on this pool
     total cpu time spent up to now is      242.3 secs

     Computing kpt #:   100  of   140 on this pool
     total cpu time spent up to now is      244.1 secs

     Computing kpt #:   101  of   140 on this pool
     total cpu time spent up to now is      245.9 secs

     Computing kpt #:   102  of   140 on this pool
     total cpu time spent up to now is      247.7 secs

     Computing kpt #:   103  of   140 on this pool
     total cpu time spent up to now is      249.6 secs

     Computing kpt #:   104  of   140 on this pool
     total cpu time spent up to now is      251.4 secs

     Computing kpt #:   105  of   140 on this pool
     total cpu time spent up to now is      253.3 secs

     Computing kpt #:   106  of   140 on this pool
     total cpu time spent up to now is      255.1 secs

     Computing kpt #:   107  of   140 on this pool
     total cpu time spent up to now is      256.9 secs

     Computing kpt #:   108  of   140 on this pool
     total cpu time spent up to now is      258.5 secs

     Computing kpt #:   109  of   140 on this pool
     total cpu time spent up to now is      260.0 secs

     Computing kpt #:   110  of   140 on this pool
     total cpu time spent up to now is      262.4 secs

     Computing kpt #:   111  of   140 on this pool
     total cpu time spent up to now is      264.9 secs

     Computing kpt #:   112  of   140 on this pool
     c_bands:  1 eigenvalues not converged
     total cpu time spent up to now is      267.4 secs

     Computing kpt #:   113  of   140 on this pool
     c_bands:  1 eigenvalues not converged
     total cpu time spent up to now is      269.9 secs

     Computing kpt #:   114  of   140 on this pool
     c_bands:  1 eigenvalues not converged
     total cpu time spent up to now is      271.7 secs

     Computing kpt #:   115  of   140 on this pool
     c_bands:  1 eigenvalues not converged
     total cpu time spent up to now is      273.5 secs

     Computing kpt #:   116  of   140 on this pool
     total cpu time spent up to now is      275.3 secs

     Computing kpt #:   117  of   140 on this pool
     total cpu time spent up to now is      277.0 secs

     Computing kpt #:   118  of   140 on this pool
     total cpu time spent up to now is      278.7 secs

     Computing kpt #:   119  of   140 on this pool
     total cpu time spent up to now is      280.6 secs

     Computing kpt #:   120  of   140 on this pool
     total cpu time spent up to now is      282.5 secs

     Computing kpt #:   121  of   140 on this pool
     total cpu time spent up to now is      284.5 secs

     Computing kpt #:   122  of   140 on this pool
     total cpu time spent up to now is      286.7 secs

     Computing kpt #:   123  of   140 on this pool
     total cpu time spent up to now is      289.4 secs

     Computing kpt #:   124  of   140 on this pool
     total cpu time spent up to now is      292.0 secs

     Computing kpt #:   125  of   140 on this pool
     total cpu time spent up to now is      294.6 secs

     Computing kpt #:   126  of   140 on this pool
     total cpu time spent up to now is      297.1 secs

     Computing kpt #:   127  of   140 on this pool
     total cpu time spent up to now is      299.6 secs

     Computing kpt #:   128  of   140 on this pool
     total cpu time spent up to now is      302.1 secs

     Computing kpt #:   129  of   140 on this pool
     total cpu time spent up to now is      304.5 secs

     Computing kpt #:   130  of   140 on this pool
     total cpu time spent up to now is      307.1 secs

     Computing kpt #:   131  of   140 on this pool
     total cpu time spent up to now is      309.8 secs

     Computing kpt #:   132  of   140 on this pool
     total cpu time spent up to now is      312.5 secs

     Computing kpt #:   133  of   140 on this pool
     c_bands:  1 eigenvalues not converged
     total cpu time spent up to now is      315.7 secs

     Computing kpt #:   134  of   140 on this pool
     total cpu time spent up to now is      319.0 secs

     Computing kpt #:   135  of   140 on this pool
     total cpu time spent up to now is      322.4 secs

     Computing kpt #:   136  of   140 on this pool
     total cpu time spent up to now is      324.7 secs

     Computing kpt #:   137  of   140 on this pool
     total cpu time spent up to now is      326.6 secs

     Computing kpt #:   138  of   140 on this pool
     total cpu time spent up to now is      328.4 secs

     Computing kpt #:   139  of   140 on this pool
     total cpu time spent up to now is      330.2 secs

     Computing kpt #:   140  of   140 on this pool
     total cpu time spent up to now is      331.7 secs

     ethr =  1.28E-12,  avg # of iterations = 83.6

     total cpu time spent up to now is      331.7 secs

     End of band structure calculation

          k = 0.0000 0.0000 0.0000 ( 10977 PWs)   bands (ev):

   -13.9097 -13.9097 -13.9097 -13.9097 -13.8935 -13.8935 -13.8378 -13.8235
   -13.8235 -13.8235 -13.8235 -13.8203 -13.8203 -13.7912 -13.7912  -6.5719
    -4.5713  -4.2131  -4.2131  -4.2131  -4.2131  -0.0223  -0.0223   1.4538
     3.6540   3.6540   3.6540   3.6540   3.9944   3.9944   5.6771   5.6771
     5.6771   5.6771   6.4590   6.4590   6.6911   6.6911   7.1667   8.7632
     8.9664   8.9664  10.6829  12.4399  12.4399  13.9848  13.9848  13.9848
    13.9848  14.6520  14.6520  14.9215  14.9215  16.0434  16.0434  16.0434
    16.0434  16.1236  16.6253  16.6253  17.5604  18.2026  18.2026  18.6213

          k = 0.0250 0.0000 0.0000 ( 10981 PWs)   bands (ev):

   -13.9126 -13.9126 -13.9068 -13.9068 -13.8936 -13.8934 -13.8377 -13.8252
   -13.8252 -13.8219 -13.8219 -13.8204 -13.8203 -13.7912 -13.7912  -6.5702
    -4.5702  -4.2466  -4.2466  -4.1825  -4.1825  -0.0196  -0.0196   1.4544
     3.6381   3.6381   3.6565   3.6565   4.0122   4.0122   5.6361   5.6361
     5.7205   5.7205   6.4327   6.4466   6.6904   6.7002   7.1672   8.7775
     8.9685   8.9685  10.6933  12.4335  12.4432  13.9734  13.9734  13.9857
    13.9857  14.6456  14.6456  14.9028  14.9028  15.9405  15.9405  16.1287
    16.1685  16.1685  16.6056  16.6276  17.5582  18.1530  18.1926  18.6788

          k = 0.0500 0.0000 0.0000 ( 10959 PWs)   bands (ev):

   -13.9155 -13.9155 -13.9039 -13.9039 -13.8938 -13.8931 -13.8375 -13.8269
   -13.8269 -13.8206 -13.8204 -13.8204 -13.8203 -13.7911 -13.7911  -6.5651
    -4.5667  -4.2828  -4.2828  -4.1545  -4.1545  -0.0115  -0.0115   1.4560
     3.5992   3.5992   3.6630   3.6630   4.0580   4.0580   5.5983   5.5983
     5.7657   5.7657   6.3616   6.4141   6.6821   6.7229   7.1687   8.8191
     8.9747   8.9747  10.7241  12.4149  12.4529  13.9519  13.9519  13.9758
    13.9758  14.6278  14.6278  14.8487  14.8487  15.8651  15.8651  16.1433
    16.3085  16.3085  16.5490  16.6344  17.5510  18.0471  18.1650  18.8077

          k = 0.0750 0.0000 0.0000 ( 10943 PWs)   bands (ev):

   -13.9183 -13.9183 -13.9009 -13.9009 -13.8942 -13.8927 -13.8372 -13.8286
   -13.8286 -13.8209 -13.8203 -13.8189 -13.8189 -13.7909 -13.7909  -6.5566
    -4.5609  -4.3216  -4.3216  -4.1294  -4.1294   0.0018   0.0018   1.4587
     3.5491   3.5491   3.6738   3.6738   4.1190   4.1190   5.5649   5.5649
     5.8122   5.8122   6.2589   6.3690   6.6582   6.7519   7.1706   8.8843
     8.9847   8.9847  10.7738  12.3853  12.4690  13.9194  13.9194  13.9540
    13.9540  14.6009  14.6009  14.7652  14.7652  15.8179  15.8179  16.1649
    16.4562  16.4562  16.4624  16.6455  17.5369  17.9277  18.1262  18.9596

          k = 0.1000 0.0000 0.0000 ( 10927 PWs)   bands (ev):

   -13.9210 -13.9210 -13.8980 -13.8980 -13.8948 -13.8921 -13.8367 -13.8303
   -13.8303 -13.8214 -13.8203 -13.8175 -13.8175 -13.7907 -13.7907  -6.5448
    -4.5529  -4.3629  -4.3629  -4.1068  -4.1068   0.0201   0.0201   1.4624
     3.4955   3.4955   3.6888   3.6888   4.1867   4.1867   5.5370   5.5370
     5.8596   5.8596   6.1337   6.3162   6.6161   6.7824   7.1722   8.9682
     8.9982   8.9982  10.8403  12.3472  12.4911  13.8743  13.8743  13.9197
    13.9197  14.5673  14.5673  14.6634  14.6634  15.7951  15.7951  16.1860
    16.3589  16.6059  16.6059  16.6604  17.5100  17.8161  18.0828  19.1017

          k = 0.1250 0.0000 0.0000 ( 10905 PWs)   bands (ev):

   -13.9237 -13.9237 -13.8956 -13.8952 -13.8952 -13.8913 -13.8361 -13.8321
   -13.8321 -13.8219 -13.8203 -13.8163 -13.8163 -13.7904 -13.7904  -6.5295
    -4.5427  -4.4067  -4.4067  -4.0869  -4.0869   0.0432   0.0432   1.4668
     3.4424   3.4424   3.7079   3.7079   4.2561   4.2561   5.5163   5.5163
     5.9075   5.9075   5.9924   6.2583   6.5569   6.8119   7.1730   9.0146
     9.0146   9.0654  10.9206  12.3035  12.5190  13.8145  13.8145  13.8730
    13.8730  14.5157  14.5157  14.5689  14.5689  15.7909  15.7909  16.1636
    16.2851  16.6786  16.7535  16.7535  17.4599  17.7292  18.0406  19.2128

          k = 0.1500 0.0000 0.0000 ( 10913 PWs)   bands (ev):

   -13.9263 -13.9263 -13.8965 -13.8923 -13.8923 -13.8903 -13.8354 -13.8338
   -13.8338 -13.8226 -13.8203 -13.8151 -13.8151 -13.7901 -13.7901  -6.5110
    -4.5303  -4.4526  -4.4526  -4.0695  -4.0695   0.0705   0.0705   1.4719
     3.3917   3.3917   3.7307   3.7307   4.3237   4.3237   5.5044   5.5044
     5.8394   5.9558   5.9558   6.1968   6.4830   6.8393   7.1723   9.0333
     9.0333   9.1705  11.0107  12.2583  12.5518  13.7383  13.7383  13.8140
    13.8140  14.4161  14.4161  14.5237  14.5237  15.8000  15.8000  16.0491
    16.2909  16.6992  16.8959  16.8959  17.3838  17.6752  18.0037  19.3041

          k = 0.1750 0.0000 0.0000 ( 10911 PWs)   bands (ev):

   -13.9288 -13.9288 -13.8975 -13.8896 -13.8896 -13.8892 -13.8355 -13.8355
   -13.8346 -13.8233 -13.8202 -13.8140 -13.8140 -13.7897 -13.7897  -6.4890
    -4.5159  -4.5005  -4.5005  -4.0544  -4.0544   0.1018   0.1018   1.4775
     3.3447   3.3447   3.7571   3.7571   4.3869   4.3869   5.5031   5.5031
     5.6783   6.0044   6.0044   6.1327   6.3971   6.8640   7.1701   9.0535
     9.0535   9.2788  11.1059  12.2170  12.5893  13.6460  13.6460  13.7430
    13.7430  14.3089  14.3089  14.4964  14.4964  15.8186  15.8186  15.9073
    16.3101  16.7216  17.0309  17.0309  17.2990  17.6444  17.9759  19.3930

          k = 0.2000 0.0000 0.0000 ( 10915 PWs)   bands (ev):

   -13.9312 -13.9312 -13.8988 -13.8879 -13.8869 -13.8869 -13.8371 -13.8371
   -13.8337 -13.8241 -13.8202 -13.8131 -13.8131 -13.7894 -13.7894  -6.4638
    -4.5501  -4.5501  -4.4994  -4.0416  -4.0416   0.1365   0.1365   1.4832
     3.3019   3.3019   3.7866   3.7866   4.4434   4.4434   5.5117   5.5143
     5.5143   6.0531   6.0531   6.0665   6.3015   6.8858   7.1661   9.0742
     9.0742   9.3858  11.2001  12.1863  12.6305  13.5391  13.5391  13.6609
    13.6609  14.2104  14.2104  14.4752  14.4752  15.7591  15.8441  15.8441
    16.3175  16.7452  17.1568  17.1568  17.2264  17.6240  17.9599  19.4865

          k = 0.2250 0.0000 0.0000 ( 10945 PWs)   bands (ev):

   -13.9335 -13.9335 -13.9002 -13.8865 -13.8843 -13.8843 -13.8386 -13.8386
   -13.8328 -13.8249 -13.8201 -13.8122 -13.8122 -13.7891 -13.7891  -6.4353
    -4.6012  -4.6012  -4.4811  -4.0309  -4.0309   0.1742   0.1742   1.4887
     3.2637   3.2637   3.8189   3.8189   4.4918   4.4918   5.3419   5.5391
     5.5391   5.9988   6.1019   6.1019   6.1984   6.9044   7.1603   9.0946
     9.0946   9.4873  11.2861  12.1745  12.6748  13.4204  13.4204  13.5701
    13.5701  14.1234  14.1234  14.4580  14.4580  15.6096  15.8747  15.8747
    16.3032  16.7696  17.1808  17.2727  17.2727  17.6076  17.9577  19.5873

[...]
     9.7187   9.8082  11.8676  12.0712  12.3408  12.9447  13.0145  13.1360
    13.1462  13.2741  13.5998  14.1646  14.4786  14.8057  15.7257  16.0215
    16.6145  16.6693  16.7367  16.7921  17.0833  18.3941  18.6092  18.6908

          k =-0.3501-0.2021 0.5444 ( 10922 PWs)   bands (ev):

   -13.9553 -13.9324 -13.9121 -13.8779 -13.8766 -13.8642 -13.8518 -13.8398
   -13.8327 -13.8251 -13.8193 -13.8150 -13.7985 -13.7909 -13.7874  -5.9531
    -5.0545  -4.6589  -4.5766  -4.1916  -4.1742   0.1374   0.7565   1.9862
     2.4649   3.1333   3.9728   4.2633   4.6235   4.8117   5.0253   5.1535
     5.6262   6.2093   6.4167   6.4830   6.5274   6.5552   6.5798   8.8626
     9.7034   9.7796  11.9492  12.0069  12.3571  12.8537  13.1038  13.1946
    13.2339  13.3664  13.5552  14.0738  14.4182  14.7124  15.7119  15.9927
    16.7041  16.7135  16.8558  16.8660  17.0489  18.5221  18.5856  18.7369

          k =-0.3751-0.2165 0.5444 ( 10926 PWs)   bands (ev):

   -13.9573 -13.9318 -13.9143 -13.8767 -13.8755 -13.8623 -13.8530 -13.8399
   -13.8338 -13.8245 -13.8199 -13.8131 -13.7975 -13.7921 -13.7872  -5.8923
    -5.1376  -4.6187  -4.5929  -4.2217  -4.1807   0.1368   0.8562   1.8985
     2.4387   3.2121   4.0703   4.3929   4.4734   4.9142   5.0524   5.1203
     5.6137   6.1843   6.3970   6.4647   6.4794   6.5168   6.5315   8.7607
     9.6909   9.7536  11.9423  12.0261  12.3705  12.7795  13.1835  13.2477
    13.3020  13.4455  13.5151  14.0040  14.3756  14.6289  15.7020  15.9585
    16.6908  16.8108  16.9190  17.0331  17.0450  18.6005  18.6408  18.7422

          k =-0.4001-0.2310 0.5444 ( 10930 PWs)   bands (ev):

   -13.9589 -13.9309 -13.9166 -13.8757 -13.8747 -13.8608 -13.8539 -13.8399
   -13.8349 -13.8240 -13.8204 -13.8109 -13.7966 -13.7936 -13.7871  -5.8282
    -5.2206  -4.6064  -4.5775  -4.2549  -4.1862   0.1360   0.9595   1.8051
     2.4171   3.3017   4.1687   4.3226   4.5133   4.9531   5.0143   5.2025
     5.5916   6.1714   6.3822   6.4305   6.4486   6.4808   6.4816   8.6724
     9.6813   9.7308  11.8814  12.0981  12.3785  12.7214  13.2514  13.2939
    13.3499  13.4808  13.5063  13.9565  14.3500  14.5559  15.6979  15.9191
    16.6962  16.9015  16.9463  17.0349  17.2309  18.6598  18.7237  18.7477

          k =-0.4251-0.2454 0.5444 ( 10946 PWs)   bands (ev):

   -13.9602 -13.9297 -13.9188 -13.8748 -13.8740 -13.8595 -13.8546 -13.8397
   -13.8359 -13.8236 -13.8209 -13.8086 -13.7959 -13.7953 -13.7870  -5.7608
    -5.3030  -4.6171  -4.5356  -4.2907  -4.1907   0.1351   1.0657   1.7067
     2.4002   3.4015   4.1737   4.2675   4.6187   4.8549   5.1113   5.2695
     5.5563   6.1724   6.3729   6.3816   6.4336   6.4352   6.4485   8.6006
     9.6750   9.7115  11.8285  12.1643  12.3787  12.6784  13.3057  13.3317
    13.3798  13.4533  13.5463  13.9310  14.3394  14.4941  15.7009  15.8766
    16.7183  16.9471  16.9801  17.0501  17.4052  18.6964  18.7642  18.8411

          k =-0.4501-0.2598 0.5444 ( 10944 PWs)   bands (ev):

   -13.9612 -13.9283 -13.9209 -13.8742 -13.8736 -13.8586 -13.8551 -13.8394
   -13.8369 -13.8232 -13.8214 -13.8062 -13.7972 -13.7954 -13.7869  -5.6904
    -5.3842  -4.6247  -4.4933  -4.3286  -4.1940   0.1344   1.1737   1.6042
     2.3882   3.5108   4.0285   4.3663   4.7020   4.7574   5.2042   5.3192
     5.5070   6.1870   6.3338   6.3697   6.3927   6.4208   6.4251   8.5477
     9.6720   9.6959  11.7876  12.2238  12.3692  12.6490  13.3454  13.3598
    13.3962  13.4332  13.5673  13.9228  14.3408  14.4434  15.7119  15.8339
    16.7533  16.9257  17.0411  17.0715  17.5549  18.6708  18.9097  18.9212

          k =-0.4751-0.2743 0.5444 ( 10952 PWs)   bands (ev):

   -13.9618 -13.9267 -13.9230 -13.8737 -13.8735 -13.8581 -13.8554 -13.8390
   -13.8377 -13.8228 -13.8219 -13.8039 -13.7993 -13.7951 -13.7868  -5.6173
    -5.4640  -4.6294  -4.4510  -4.3683  -4.1961   0.1339   1.2826   1.4986
     2.3809   3.6290   3.8885   4.4648   4.6600   4.7559   5.2918   5.3499
     5.4450   6.2129   6.2886   6.3648   6.3728   6.3986   6.4187   8.5154
     9.6724   9.6843  11.7619  12.2753  12.3488  12.6318  13.3702  13.3764
    13.4050  13.4198  13.5755  13.9233  14.3524  14.4033  15.7315  15.7939
    16.7967  16.8889  17.0799  17.0898  17.6603  18.6531  18.9912  19.0520

          k = 0.5000 0.2886 0.5444 ( 10948 PWs)   bands (ev):

   -13.9620 -13.9249 -13.9249 -13.8735 -13.8735 -13.8579 -13.8555 -13.8384
   -13.8384 -13.8224 -13.8224 -13.8016 -13.8015 -13.7950 -13.7868  -5.5419
    -5.5416  -4.6309  -4.4093  -4.4092  -4.1968   0.1337   1.3909   1.3914
     2.3785   3.7549   3.7554   4.5624   4.5628   4.7746   5.3602   5.3724
     5.3727   6.2476   6.2477   6.3548   6.3825   6.3825   6.4166   8.5045
     9.6765   9.6765  11.7531  12.3172  12.3174  12.6262  13.3803  13.3803
    13.4114  13.4114  13.5774  13.9244  14.3731  14.3732  15.7591  15.7593
    16.8437  16.8439  17.0951  17.0951  17.6989  18.6468  19.0348  19.0459

          k = 0.4750 0.2742 0.5444 ( 10952 PWs)   bands (ev):

   -13.9618 -13.9267 -13.9230 -13.8737 -13.8735 -13.8581 -13.8554 -13.8390
   -13.8377 -13.8228 -13.8219 -13.8039 -13.7993 -13.7951 -13.7868  -5.6176
    -5.4637  -4.6293  -4.4512  -4.3682  -4.1961   0.1339   1.2821   1.4991
     2.3809   3.6285   3.8891   4.4644   4.6604   4.7558   5.2914   5.3498
     5.4452   6.2128   6.2888   6.3648   6.3728   6.3987   6.4187   8.5155
     9.6724   9.6843  11.7619  12.2751  12.3489  12.6319  13.3701  13.3764
    13.4050  13.4198  13.5755  13.9233  14.3523  14.4035  15.7314  15.7940
    16.7966  16.8891  17.0797  17.0897  17.6600  18.6531  18.9909  19.0521

          k = 0.4500 0.2598 0.5444 ( 10944 PWs)   bands (ev):

   -13.9612 -13.9283 -13.9209 -13.8742 -13.8736 -13.8586 -13.8551 -13.8394
   -13.8369 -13.8232 -13.8214 -13.8062 -13.7972 -13.7954 -13.7869  -5.6907
    -5.3839  -4.6247  -4.4935  -4.3285  -4.1940   0.1344   1.1732   1.6046
     2.3882   3.5103   4.0291   4.3659   4.7017   4.7578   5.2038   5.3191
     5.5072   6.1869   6.3340   6.3697   6.3929   6.4209   6.4251   8.5479
     9.6720   9.6960  11.7878  12.2236  12.3693  12.6491  13.3453  13.3597
    13.3962  13.4333  13.5672  13.9228  14.3408  14.4436  15.7119  15.8340
    16.7532  16.9258  17.0409  17.0714  17.5544  18.6709  18.9090  18.9209

          k = 0.4250 0.2453 0.5444 ( 10946 PWs)   bands (ev):

   -13.9602 -13.9297 -13.9188 -13.8749 -13.8741 -13.8595 -13.8546 -13.8397
   -13.8359 -13.8236 -13.8209 -13.8086 -13.7959 -13.7953 -13.7870  -5.7611
    -5.3026  -4.6170  -4.5358  -4.2905  -4.1907   0.1351   1.0652   1.7071
     2.4003   3.4010   4.1743   4.2671   4.6183   4.8553   5.1109   5.2693
     5.5565   6.1724   6.3729   6.3818   6.4338   6.4352   6.4486   8.6009
     9.6750   9.7115  11.8287  12.1641  12.3787  12.6785  13.3055  13.3316
    13.3797  13.4534  13.5462  13.9311  14.3394  14.4943  15.7009  15.8767
    16.7182  16.9472  16.9798  17.0501  17.4046  18.6966  18.7637  18.8407

          k = 0.4000 0.2309 0.5444 ( 10930 PWs)   bands (ev):

   -13.9589 -13.9309 -13.9166 -13.8757 -13.8747 -13.8608 -13.8539 -13.8399
   -13.8349 -13.8240 -13.8204 -13.8109 -13.7966 -13.7936 -13.7871  -5.8285
    -5.2203  -4.6064  -4.5777  -4.2548  -4.1862   0.1360   0.9591   1.8054
     2.4172   3.3013   4.1683   4.3232   4.5129   4.9535   5.0139   5.2022
     5.5917   6.1714   6.3822   6.4307   6.4486   6.4810   6.4818   8.6727
     9.6814   9.7308  11.8816  12.0978  12.3784  12.7216  13.2511  13.2937
    13.3498  13.4809  13.5061  13.9567  14.3501  14.5562  15.6979  15.9193
    16.6962  16.9011  16.9462  17.0348  17.2302  18.6594  18.7238  18.7473

          k = 0.3750 0.2165 0.5444 ( 10926 PWs)   bands (ev):

   -13.9573 -13.9318 -13.9143 -13.8767 -13.8755 -13.8623 -13.8530 -13.8399
   -13.8338 -13.8245 -13.8199 -13.8131 -13.7975 -13.7921 -13.7872  -5.8926
    -5.1373  -4.6189  -4.5929  -4.2216  -4.1806   0.1368   0.8558   1.8988
     2.4388   3.2118   4.0699   4.3924   4.4740   4.9138   5.0528   5.1200
     5.6138   6.1844   6.3970   6.4648   6.4796   6.5169   6.5317   8.7611
     9.6909   9.7537  11.9425  12.0259  12.3704  12.7797  13.1832  13.2475
    13.3018  13.4452  13.5152  14.0042  14.3757  14.6292  15.7021  15.9586
    16.6908  16.8104  16.9188  17.0331  17.0442  18.6003  18.6403  18.7422

          k = 0.3500 0.2021 0.5444 ( 10922 PWs)   bands (ev):

   -13.9553 -13.9324 -13.9121 -13.8779 -13.8766 -13.8642 -13.8518 -13.8398
   -13.8327 -13.8251 -13.8193 -13.8150 -13.7985 -13.7909 -13.7874  -5.9533
    -5.0542  -4.6590  -4.5766  -4.1915  -4.1742   0.1374   0.7561   1.9866
     2.4651   3.1330   3.9724   4.2628   4.6241   4.8113   5.0249   5.1539
     5.6263   6.2094   6.4167   6.4831   6.5276   6.5554   6.5800   8.8630
     9.7034   9.7797  11.9489  12.0071  12.3570  12.8540  13.1035  13.1944
    13.2336  13.3661  13.5554  14.0741  14.4184  14.7128  15.7120  15.9929
    16.7042  16.7131  16.8550  16.8657  17.0490  18.5216  18.5856  18.7368

          k = 0.3250 0.1876 0.5444 ( 10924 PWs)   bands (ev):

   -13.9530 -13.9328 -13.9099 -13.8792 -13.8778 -13.8664 -13.8505 -13.8395
   -13.8315 -13.8259 -13.8187 -13.8166 -13.7998 -13.7899 -13.7877  -6.0104
    -4.9714  -4.6977  -4.5577  -4.1671  -4.1647   0.1375   0.6610   2.0680
     2.4959   3.0653   3.8765   4.1289   4.7072   4.7698   4.9192   5.2569
     5.6352   6.2434   6.4406   6.5033   6.5738   6.5950   6.6246   8.9753
     9.7188   9.8083  11.8673  12.0714  12.3407  12.9451  13.0141  13.1357
    13.1458  13.2737  13.6000  14.1650  14.4789  14.8061  15.7258  16.0216
    16.6141  16.6685  16.7369  16.7918  17.0835  18.3935  18.6093  18.6905

          k = 0.3000 0.1732 0.5444 ( 10934 PWs)   bands (ev):

   -13.9504 -13.9328 -13.9077 -13.8806 -13.8793 -13.8689 -13.8490 -13.8391
   -13.8302 -13.8269 -13.8182 -13.8179 -13.8012 -13.7892 -13.7879  -6.0638
    -4.8897  -4.7347  -4.5363  -4.1596  -4.1417   0.1370   0.5712   2.1426
     2.5313   3.0091   3.7828   3.9947   4.6020   4.8052   4.9055   5.3622
     5.6485   6.2831   6.4679   6.5251   6.6174   6.6346   6.6645   9.0944
     9.7370   9.8385  11.7808  12.1324  12.3239  12.9176  13.0418  13.0521
    13.0727  13.1725  13.6478  14.2757  14.5569  14.9076  15.7415  16.0465
    16.4888  16.5175  16.7043  16.7869  17.1348  18.2588  18.5956  18.6626

          k = 0.2750 0.1588 0.5444 ( 10938 PWs)   bands (ev):

   -13.9476 -13.9325 -13.9057 -13.8821 -13.8809 -13.8717 -13.8474 -13.8385
   -13.8290 -13.8282 -13.8188 -13.8177 -13.8027 -13.7888 -13.7882  -6.1133
    -4.8095  -4.7697  -4.5128  -4.1520  -4.1228   0.1354   0.4874   2.2102
     2.5711   2.9648   3.6919   3.8634   4.4965   4.6851   5.0230   5.4695
     5.6755   6.3260   6.4978   6.5482   6.6577   6.6730   6.6994   9.2167
     9.7578   9.8692  11.6891  12.1882  12.3084  12.8169  12.9274  13.0065
    13.0667  13.1723  13.6975  14.4054  14.6511  15.0156  15.7575  16.0701
    16.3195  16.4272  16.6109  16.8508  17.1990  18.1197  18.4611  18.7370

          k = 0.2500 0.1443 0.5444 ( 10938 PWs)   bands (ev):

   -13.9446 -13.9320 -13.9037 -13.8836 -13.8828 -13.8746 -13.8455 -13.8378
   -13.8295 -13.8278 -13.8194 -13.8173 -13.8043 -13.7885 -13.7885  -6.1588
    -4.8025  -4.7314  -4.4872  -4.1447  -4.1081   0.1327   0.4103   2.2706
     2.6150   2.9324   3.6047   3.7376   4.3912   4.5609   5.1132   5.5783
     5.7257   6.3707   6.5295   6.5722   6.6942   6.7092   6.7291   9.3388
     9.7810   9.8993  11.5919  12.2381  12.2958  12.7152  12.8084  12.9380
    12.9597  13.3017  13.7475  14.5535  14.7600  15.1275  15.7720  16.0956
    16.1637  16.3469  16.5172  16.9244  17.2700  17.9790  18.3041  18.8248

          k = 0.2250 0.1299 0.5444 ( 10940 PWs)   bands (ev):

   -13.9414 -13.9310 -13.9019 -13.8852 -13.8848 -13.8778 -13.8436 -13.8369
   -13.8309 -13.8265 -13.8198 -13.8170 -13.8060 -13.7888 -13.7885  -6.2003
    -4.8328  -4.6562  -4.4600  -4.1381  -4.0978   0.1285   0.3404   2.3239
     2.6629   2.9119   3.5217   3.6195   4.2866   4.4344   5.1718   5.6877
     5.8023   6.4166   6.5621   6.5970   6.7264   6.7423   6.7541   9.4575
     9.8065   9.9271  11.4888  12.2819  12.2873  12.6157  12.6910  12.8547
    12.8684  13.4347  13.7965  14.7196  14.8818  15.2399  15.7837  16.0249
    16.1255  16.2811  16.4271  17.0035  17.3395  17.8385  18.1368  18.9190

          k = 0.2000 0.1155 0.5444 ( 10924 PWs)   bands (ev):

   -13.9381 -13.9298 -13.9002 -13.8870 -13.8867 -13.8812 -13.8415 -13.8359
   -13.8322 -13.8254 -13.8200 -13.8168 -13.8079 -13.7891 -13.7887  -6.2376
    -4.8604  -4.5845  -4.4313  -4.1327  -4.0921   0.1230   0.2782   2.3703
     2.7144   2.9033   3.4438   3.5109   4.1834   4.3077   5.2030   5.7965
     5.8988   6.4641   6.5950   6.6222   6.7538   6.7714   6.7745   9.5698
     9.8338   9.9514  11.3805  12.2838  12.3196  12.5215  12.5802  12.7547
    12.7988  13.5651  13.8433  14.9029  15.0147  15.3483  15.7917  15.9064
    16.1620  16.2348  16.3434  17.0839  17.3969  17.6998  17.9664  19.0136

          k = 0.1750 0.1010 0.5444 ( 10932 PWs)   bands (ev):

   -13.9346 -13.9283 -13.8987 -13.8893 -13.8881 -13.8847 -13.8393 -13.8347
   -13.8334 -13.8243 -13.8202 -13.8167 -13.8097 -13.7894 -13.7890  -6.2706
    -4.8853  -4.5168  -4.4014  -4.1288  -4.0909   0.1159   0.2240   2.4101
     2.7693   2.9062   3.3717   3.4133   4.0823   4.1823   5.2158   5.9028
     6.0030   6.5144   6.6275   6.6475   6.7763   6.7907   6.7959   9.6731
     9.8626   9.9708  11.2684  12.2854  12.3512  12.4354  12.4799  12.6623
    12.7300  13.6865  13.8864  15.1028  15.1569  15.4464  15.7953  15.8110
    16.2064  16.2137  16.2678  17.1600  17.4303  17.5650  17.7974  19.1015

          k = 0.1500 0.0866 0.5444 ( 10924 PWs)   bands (ev):

   -13.9311 -13.9264 -13.8973 -13.8918 -13.8894 -13.8883 -13.8370 -13.8345
   -13.8334 -13.8233 -13.8203 -13.8169 -13.8117 -13.7898 -13.7894  -6.2994
    -4.9071  -4.4538  -4.3709  -4.1271  -4.0941   0.1076   0.1781   2.4436
     2.8267   2.9200   3.3063   3.3279   3.9840   4.0603   5.2181   6.0048
     6.1026   6.5689   6.6587   6.6726   6.7936   6.8027   6.8155   9.7651
     9.8922   9.9847  11.1554  12.2922  12.3597  12.3766  12.3926  12.5800
    12.6634  13.7927  13.9248  15.3059  15.3179  15.5279  15.7411  15.7949
    16.2012  16.2242  16.2599  17.2252  17.4292  17.4352  17.6322  19.1455

          k = 0.1250 0.0722 0.5444 ( 10922 PWs)   bands (ev):

   -13.9275 -13.9243 -13.8962 -13.8945 -13.8919 -13.8906 -13.8354 -13.8346
   -13.8320 -13.8225 -13.8203 -13.8173 -13.8137 -13.7901 -13.7898  -6.3238
    -4.9258  -4.3959  -4.3399  -4.1281  -4.1015   0.0984   0.1404   2.4712
     2.8859   2.9437   3.2482   3.2556   3.8897   3.9437   5.2152   6.0997
     6.1885   6.6285   6.6882   6.6971   6.8057   6.8108   6.8300   9.8438
     9.9217   9.9929  11.0458  12.2961  12.3036  12.3196  12.3954  12.5103
    12.6001  13.8792  13.9575  15.4590  15.5468  15.5881  15.6968  15.7909
    16.1447  16.2686  16.3226  17.2698  17.3114  17.3895  17.4723  19.1476

          k = 0.1000 0.0577 0.5444 ( 10922 PWs)   bands (ev):

   -13.9239 -13.9219 -13.8973 -13.8956 -13.8952 -13.8916 -13.8362 -13.8323
   -13.8305 -13.8217 -13.8203 -13.8180 -13.8157 -13.7904 -13.7902  -6.3439
    -4.9412  -4.3435  -4.3089  -4.1324  -4.1131   0.0889   0.1109   2.4932
     2.9454   2.9758   3.1969   3.1985   3.8008   3.8351   5.2101   6.1849
     6.2558   6.6910   6.7154   6.7205   6.8126   6.8151   6.8394   9.9080
     9.9498   9.9961  10.9447  12.2451  12.2608  12.3189  12.4076  12.4547
    12.5417  13.9440  13.9840  15.6120  15.6288  15.6755  15.7846  15.7872
    16.0984  16.3428  16.3951  17.1941  17.2807  17.3159  17.3190  19.0555

          k = 0.0750 0.0433 0.5444 ( 10916 PWs)   bands (ev):

   -13.9203 -13.9192 -13.9003 -13.8993 -13.8945 -13.8924 -13.8368 -13.8299
   -13.8289 -13.8212 -13.8204 -13.8190 -13.8177 -13.7906 -13.7906  -6.3595
    -4.9533  -4.2970  -4.2783  -4.1406  -4.1284   0.0797   0.0892   2.5099
     3.0024   3.0137   3.1520   3.1579   3.7198   3.7379   5.2049   6.2569
     6.3042   6.7399   6.7423   6.7509   6.8146   6.8155   6.8443   9.9568
     9.9752   9.9957  10.8578  12.2067  12.2160  12.3368  12.4128  12.4148
    12.4898  13.9879  14.0045  15.6551  15.6711  15.7584  15.7772  16.0359
    16.0625  16.4376  16.4775  17.0824  17.1729  17.2208  17.2419  18.9482

          k = 0.0500 0.0289 0.5444 ( 10916 PWs)   bands (ev):

   -13.9168 -13.9163 -13.9034 -13.9029 -13.8939 -13.8930 -13.8372 -13.8277
   -13.8272 -13.8207 -13.8204 -13.8202 -13.8196 -13.7909 -13.7908  -6.3707
    -4.9620  -4.2565  -4.2486  -4.1532  -4.1472   0.0718   0.0747   2.5216
     3.0524   3.0526   3.1211   3.1272   3.6511   3.6578   5.2005   6.3124
     6.3360   6.7613   6.7622   6.8009   6.8119   6.8121   6.8459   9.9903
     9.9934   9.9960  10.7909  12.1803  12.1846  12.3559  12.3910  12.4113
    12.4461  14.0143  14.0192  15.6720  15.6757  15.7705  15.8876  16.0371
    16.2881  16.5433  16.5697  16.9748  17.0348  17.1224  17.1418  18.8738

          k = 0.0250 0.0144 0.5444 ( 10924 PWs)   bands (ev):

   -13.9133 -13.9132 -13.9066 -13.9064 -13.8936 -13.8934 -13.8375 -13.8255
   -13.8254 -13.8217 -13.8216 -13.8205 -13.8204 -13.7910 -13.7910  -6.3774
    -4.9672  -4.2220  -4.2202  -4.1707  -4.1690   0.0663   0.0666   2.5286
     3.0849   3.0877   3.1036   3.1074   3.6022   3.6032   5.1976   6.3476
     6.3539   6.7794   6.7796   6.8049   6.8049   6.8339   6.8458   9.9912
    10.0093  10.0100  10.7485  12.1649  12.1660  12.3745  12.3834  12.4037
    12.4125  14.0276  14.0282  15.6817  15.6821  15.7658  15.9813  16.0218
    16.5369  16.6527  16.6714  16.8686  16.9054  16.9812  17.0447  18.8369

     Writing output data file ./SnS2.save/
 
     init_run     :      2.19s CPU      2.49s WALL (       1 calls)
     electrons    :    323.48s CPU    327.71s WALL (       1 calls)

     Called by init_run:
     wfcinit      :      0.00s CPU      0.21s WALL (       1 calls)
     wfcinit:atom :      0.00s CPU      0.00s WALL (     140 calls)
     wfcinit:wfcr :      5.04s CPU      5.13s WALL (     140 calls)
     potinit      :      2.12s CPU      2.20s WALL (       1 calls)
     hinit0       :      0.01s CPU      0.01s WALL (       1 calls)

     Called by electrons:
     c_bands      :    323.47s CPU    327.69s WALL (       1 calls)
     v_of_rho     :      2.12s CPU      2.14s WALL (       1 calls)
     v_h          :      0.00s CPU      0.00s WALL (       1 calls)
     v_xc         :      2.12s CPU      2.14s WALL (       1 calls)
     vdW_kernel   :      2.07s CPU      2.08s WALL (       1 calls)

     Called by c_bands:
     init_us_2    :      0.02s CPU      0.03s WALL (     140 calls)
     cegterg      :    281.68s CPU    285.49s WALL (     619 calls)

     Called by sum_band:

     Called by *egterg:
     cdiaghg      :     58.49s CPU     58.62s WALL (   11258 calls)
     cegterg:over :     12.16s CPU     12.39s WALL (   11118 calls)
     cegterg:upda :      2.76s CPU      2.78s WALL (   11118 calls)
     cegterg:last :      4.75s CPU      4.78s WALL (    5108 calls)
     h_psi        :    199.86s CPU    203.30s WALL (   11877 calls)
     g_psi        :      0.55s CPU      0.55s WALL (   11118 calls)

     Called by h_psi:
     h_psi:calbec :      6.60s CPU      6.77s WALL (   11877 calls)
     vloc_psi     :    190.70s CPU    193.93s WALL (   11877 calls)
     add_vuspsi   :      2.26s CPU      2.31s WALL (   11877 calls)

     General routines
     calbec       :      6.57s CPU      6.74s WALL (   11877 calls)
     fft          :      0.03s CPU      0.04s WALL (      60 calls)
     fftw         :    184.88s CPU    187.99s WALL (  678064 calls)
 
     Parallel routines
     fft_scatt_xy :      5.62s CPU      5.68s WALL (  678124 calls)
     fft_scatt_yz :    137.67s CPU    139.93s WALL (  678124 calls)
 
     PWSCF        :   5m31.68s CPU   5m43.32s WALL

 
   This run was terminated on:  11:44:12  10Jan2021            

=------------------------------------------------------------------------------=
   JOB DONE.
=------------------------------------------------------------------------------=
