
     Program PWSCF v.5.0.2 (svn rev. 9656) starts on 15Feb2014 at 14: 0:23 

     This program is part of the open-source Quantum ESPRESSO suite
     for quantum simulation of materials; please cite
         "P. Giannozzi et al., J. Phys.:Condens. Matter 21 395502 (2009);
          URL http://www.quantum-espresso.org", 
     in publications or presentations arising from this work. More details at
     http://www.quantum-espresso.org/quote.php

     Parallel version (MPI), running on     1 processors

     Current dimensions of program PWSCF are:
     Max number of different atomic species (ntypx) = 10
     Max number of k-points (npk) =  40000
     Max angular momentum in pseudopotentials (lmaxx) =  3
     Waiting for input...
     Reading input from standard input

     Atomic positions and unit cell read from directory:
     ../tmp/FeSC.save/


     Subspace diagonalization in iterative solution of the eigenvalue problem:
     a serial algorithm will be used

     Found symmetry operation: I + ( -0.5000  0.0000  0.0000)
     This is a supercell, fractional translations are disabled

     G-vector sticks info
     --------------------
     sticks:   dense  smooth     PW     G-vecs:    dense   smooth      PW
     Sum        1975    1191    345                55793    25939    4189



     bravais-lattice index     =            3
     lattice parameter (alat)  =      10.8400  a.u.
     unit-cell volume          =     636.8804 (a.u.)^3
     number of atoms/cell      =            8
     number of atomic types    =            1
     number of electrons       =       128.00
     number of Kohn-Sham states=           77
     kinetic-energy cutoff     =      45.0000  Ry
     charge density cutoff     =     300.0000  Ry
     Exchange-correlation      = SLA  PW   PBE  PBE ( 1 4 3 4 0)
     EXX-fraction              =        0.00

     celldm(1)=  10.840000  celldm(2)=   0.000000  celldm(3)=   0.000000
     celldm(4)=   0.000000  celldm(5)=   0.000000  celldm(6)=   0.000000

     crystal axes: (cart. coord. in units of alat)
               a(1) = (   0.500000   0.500000   0.500000 )  
               a(2) = (  -0.500000   0.500000   0.500000 )  
               a(3) = (  -0.500000  -0.500000   0.500000 )  

     reciprocal axes: (cart. coord. in units 2 pi/alat)
               b(1) = (  1.000000  0.000000  1.000000 )  
               b(2) = ( -1.000000  1.000000  0.000000 )  
               b(3) = (  0.000000 -1.000000  1.000000 )  


     PseudoPot. # 1 for Fe read from file:
     ../pps/fe_pbe_v1.uspp.F.UPF
     MD5 check sum: e6601fc8106164ab3104f788edde3ce3
     Pseudo is Ultrasoft + core correction, Zval = 16.0
     Generated by new atomic code, or converted to UPF format
     Using radial grid of  861 points,  6 beta functions with: 
                l(1) =   0
                l(2) =   0
                l(3) =   1
                l(4) =   1
                l(5) =   2
                l(6) =   2
     Q(r) pseudized with  8 coefficients,  rinner =    1.200   1.200   1.200
                                                       1.200   1.200

     atomic species   valence    mass     pseudopotential
        Fe            16.00    55.84500     Fe( 1.00)

     Starting magnetic structure 
     atomic species   magnetization
        Fe           0.500

     48 Sym. Ops., with inversion, found


                                    s                        frac. trans.

      isym =  1     identity                                     

 cryst.   s( 1) = (     1          0          0      )
                  (     0          1          0      )
                  (     0          0          1      )

 cart.    s( 1) = (  1.0000000  0.0000000  0.0000000 )
                  (  0.0000000  1.0000000  0.0000000 )
                  (  0.0000000  0.0000000  1.0000000 )


      isym =  2     180 deg rotation - cart. axis [0,0,1]        

 cryst.   s( 2) = (     0          0          1      )
                  (     1         -1          1      )
                  (     1          0          0      )

 cart.    s( 2) = ( -1.0000000  0.0000000  0.0000000 )
                  (  0.0000000 -1.0000000  0.0000000 )
                  (  0.0000000  0.0000000  1.0000000 )


      isym =  3     180 deg rotation - cart. axis [0,1,0]        

 cryst.   s( 3) = (    -1          1         -1      )
                  (     0          0         -1      )
                  (     0         -1          0      )

 cart.    s( 3) = ( -1.0000000  0.0000000  0.0000000 )
                  (  0.0000000  1.0000000  0.0000000 )
                  (  0.0000000  0.0000000 -1.0000000 )


      isym =  4     180 deg rotation - cart. axis [1,0,0]        

 cryst.   s( 4) = (     0         -1          0      )
                  (    -1          0          0      )
                  (    -1          1         -1      )

 cart.    s( 4) = (  1.0000000  0.0000000  0.0000000 )
                  (  0.0000000 -1.0000000  0.0000000 )
                  (  0.0000000  0.0000000 -1.0000000 )


      isym =  5     180 deg rotation - cart. axis [1,1,0]        

 cryst.   s( 5) = (     0          0         -1      )
                  (     0         -1          0      )
                  (    -1          0          0      )

 cart.    s( 5) = (  0.0000000  1.0000000  0.0000000 )
                  (  1.0000000  0.0000000  0.0000000 )
                  (  0.0000000  0.0000000 -1.0000000 )


      isym =  6     180 deg rotation - cart. axis [1,-1,0]       

 cryst.   s( 6) = (    -1          0          0      )
                  (    -1          1         -1      )
                  (     0          0         -1      )

 cart.    s( 6) = (  0.0000000 -1.0000000  0.0000000 )
                  ( -1.0000000  0.0000000  0.0000000 )
                  (  0.0000000  0.0000000 -1.0000000 )


      isym =  7      90 deg rotation - cart. axis [0,0,-1]       

 cryst.   s( 7) = (     1         -1          1      )
                  (     1          0          0      )
                  (     0          1          0      )

 cart.    s( 7) = (  0.0000000  1.0000000  0.0000000 )
                  ( -1.0000000  0.0000000  0.0000000 )
                  (  0.0000000  0.0000000  1.0000000 )


      isym =  8      90 deg rotation - cart. axis [0,0,1]        

 cryst.   s( 8) = (     0          1          0      )
                  (     0          0          1      )
                  (     1         -1          1      )

 cart.    s( 8) = (  0.0000000 -1.0000000  0.0000000 )
                  (  1.0000000  0.0000000  0.0000000 )
                  (  0.0000000  0.0000000  1.0000000 )


      isym =  9     180 deg rotation - cart. axis [1,0,1]        

 cryst.   s( 9) = (     1         -1          1      )
                  (     0         -1          0      )
                  (     0          0         -1      )

 cart.    s( 9) = (  0.0000000  0.0000000  1.0000000 )
                  (  0.0000000 -1.0000000  0.0000000 )
                  (  1.0000000  0.0000000  0.0000000 )


      isym = 10     180 deg rotation - cart. axis [-1,0,1]       

 cryst.   s(10) = (    -1          0          0      )
                  (     0          0          1      )
                  (     0          1          0      )

 cart.    s(10) = (  0.0000000  0.0000000 -1.0000000 )
                  (  0.0000000 -1.0000000  0.0000000 )
                  ( -1.0000000  0.0000000  0.0000000 )


      isym = 11      90 deg rotation - cart. axis [0,1,0]        

 cryst.   s(11) = (     0          0         -1      )
                  (     1          0          0      )
                  (     1         -1          1      )

 cart.    s(11) = (  0.0000000  0.0000000  1.0000000 )
                  (  0.0000000  1.0000000  0.0000000 )
                  ( -1.0000000  0.0000000  0.0000000 )


      isym = 12      90 deg rotation - cart. axis [0,-1,0]       

 cryst.   s(12) = (     0          1          0      )
                  (    -1          1         -1      )
                  (    -1          0          0      )

 cart.    s(12) = (  0.0000000  0.0000000 -1.0000000 )
                  (  0.0000000  1.0000000  0.0000000 )
                  (  1.0000000  0.0000000  0.0000000 )


      isym = 13     180 deg rotation - cart. axis [0,1,1]        

 cryst.   s(13) = (     0          1          0      )
                  (     1          0          0      )
                  (     0          0         -1      )

 cart.    s(13) = ( -1.0000000  0.0000000  0.0000000 )
                  (  0.0000000  0.0000000  1.0000000 )
                  (  0.0000000  1.0000000  0.0000000 )


      isym = 14     180 deg rotation - cart. axis [0,1,-1]       

 cryst.   s(14) = (    -1          0          0      )
                  (     0         -1          0      )
                  (     1         -1          1      )

 cart.    s(14) = ( -1.0000000  0.0000000  0.0000000 )
                  (  0.0000000  0.0000000 -1.0000000 )
                  (  0.0000000 -1.0000000  0.0000000 )


      isym = 15      90 deg rotation - cart. axis [-1,0,0]       

 cryst.   s(15) = (     0          0         -1      )
                  (    -1          1         -1      )
                  (     0          1          0      )

 cart.    s(15) = (  1.0000000  0.0000000  0.0000000 )
                  (  0.0000000  0.0000000  1.0000000 )
                  (  0.0000000 -1.0000000  0.0000000 )


      isym = 16      90 deg rotation - cart. axis [1,0,0]        

 cryst.   s(16) = (     1         -1          1      )
                  (     0          0          1      )
                  (    -1          0          0      )

 cart.    s(16) = (  1.0000000  0.0000000  0.0000000 )
                  (  0.0000000  0.0000000 -1.0000000 )
                  (  0.0000000  1.0000000  0.0000000 )


      isym = 17     120 deg rotation - cart. axis [-1,-1,-1]     

 cryst.   s(17) = (     1          0          0      )
                  (     0          0         -1      )
                  (    -1          1         -1      )

 cart.    s(17) = (  0.0000000  1.0000000  0.0000000 )
                  (  0.0000000  0.0000000  1.0000000 )
                  (  1.0000000  0.0000000  0.0000000 )


      isym = 18     120 deg rotation - cart. axis [-1,1,1]       

 cryst.   s(18) = (    -1          1         -1      )
                  (     0          1          0      )
                  (     1          0          0      )

 cart.    s(18) = (  0.0000000 -1.0000000  0.0000000 )
                  (  0.0000000  0.0000000  1.0000000 )
                  ( -1.0000000  0.0000000  0.0000000 )


      isym = 19     120 deg rotation - cart. axis [1,1,-1]       

 cryst.   s(19) = (     0         -1          0      )
                  (     1         -1          1      )
                  (     0          0          1      )

 cart.    s(19) = (  0.0000000  1.0000000  0.0000000 )
                  (  0.0000000  0.0000000 -1.0000000 )
                  ( -1.0000000  0.0000000  0.0000000 )


      isym = 20     120 deg rotation - cart. axis [1,-1,1]       

 cryst.   s(20) = (     0          0          1      )
                  (    -1          0          0      )
                  (     0         -1          0      )

 cart.    s(20) = (  0.0000000 -1.0000000  0.0000000 )
                  (  0.0000000  0.0000000 -1.0000000 )
                  (  1.0000000  0.0000000  0.0000000 )


      isym = 21     120 deg rotation - cart. axis [1,1,1]        

 cryst.   s(21) = (     1          0          0      )
                  (     1         -1          1      )
                  (     0         -1          0      )

 cart.    s(21) = (  0.0000000  0.0000000  1.0000000 )
                  (  1.0000000  0.0000000  0.0000000 )
                  (  0.0000000  1.0000000  0.0000000 )


      isym = 22     120 deg rotation - cart. axis [-1,1,-1]      

 cryst.   s(22) = (     0         -1          0      )
                  (     0          0         -1      )
                  (     1          0          0      )

 cart.    s(22) = (  0.0000000  0.0000000  1.0000000 )
                  ( -1.0000000  0.0000000  0.0000000 )
                  (  0.0000000 -1.0000000  0.0000000 )


      isym = 23     120 deg rotation - cart. axis [1,-1,-1]      

 cryst.   s(23) = (     0          0          1      )
                  (     0          1          0      )
                  (    -1          1         -1      )

 cart.    s(23) = (  0.0000000  0.0000000 -1.0000000 )
                  ( -1.0000000  0.0000000  0.0000000 )
                  (  0.0000000  1.0000000  0.0000000 )


      isym = 24     120 deg rotation - cart. axis [-1,-1,1]      

 cryst.   s(24) = (    -1          1         -1      )
                  (    -1          0          0      )
                  (     0          0          1      )

 cart.    s(24) = (  0.0000000  0.0000000 -1.0000000 )
                  (  1.0000000  0.0000000  0.0000000 )
                  (  0.0000000 -1.0000000  0.0000000 )


      isym = 25     inversion                                    

 cryst.   s(25) = (    -1          0          0      )
                  (     0         -1          0      )
                  (     0          0         -1      )

 cart.    s(25) = ( -1.0000000  0.0000000  0.0000000 )
                  (  0.0000000 -1.0000000  0.0000000 )
                  (  0.0000000  0.0000000 -1.0000000 )


      isym = 26     inv. 180 deg rotation - cart. axis [0,0,1]   

 cryst.   s(26) = (     0          0         -1      )
                  (    -1          1         -1      )
                  (    -1          0          0      )

 cart.    s(26) = (  1.0000000  0.0000000  0.0000000 )
                  (  0.0000000  1.0000000  0.0000000 )
                  (  0.0000000  0.0000000 -1.0000000 )


      isym = 27     inv. 180 deg rotation - cart. axis [0,1,0]   

 cryst.   s(27) = (     1         -1          1      )
                  (     0          0          1      )
                  (     0          1          0      )

 cart.    s(27) = (  1.0000000  0.0000000  0.0000000 )
                  (  0.0000000 -1.0000000  0.0000000 )
                  (  0.0000000  0.0000000  1.0000000 )


      isym = 28     inv. 180 deg rotation - cart. axis [1,0,0]   

 cryst.   s(28) = (     0          1          0      )
                  (     1          0          0      )
                  (     1         -1          1      )

 cart.    s(28) = ( -1.0000000  0.0000000  0.0000000 )
                  (  0.0000000  1.0000000  0.0000000 )
                  (  0.0000000  0.0000000  1.0000000 )


      isym = 29     inv. 180 deg rotation - cart. axis [1,1,0]   

 cryst.   s(29) = (     0          0          1      )
                  (     0          1          0      )
                  (     1          0          0      )

 cart.    s(29) = (  0.0000000 -1.0000000  0.0000000 )
                  ( -1.0000000  0.0000000  0.0000000 )
                  (  0.0000000  0.0000000  1.0000000 )


      isym = 30     inv. 180 deg rotation - cart. axis [1,-1,0]  

 cryst.   s(30) = (     1          0          0      )
                  (     1         -1          1      )
                  (     0          0          1      )

 cart.    s(30) = (  0.0000000  1.0000000  0.0000000 )
                  (  1.0000000  0.0000000  0.0000000 )
                  (  0.0000000  0.0000000  1.0000000 )


      isym = 31     inv.  90 deg rotation - cart. axis [0,0,-1]  

 cryst.   s(31) = (    -1          1         -1      )
                  (    -1          0          0      )
                  (     0         -1          0      )

 cart.    s(31) = (  0.0000000 -1.0000000  0.0000000 )
                  (  1.0000000  0.0000000  0.0000000 )
                  (  0.0000000  0.0000000 -1.0000000 )


      isym = 32     inv.  90 deg rotation - cart. axis [0,0,1]   

 cryst.   s(32) = (     0         -1          0      )
                  (     0          0         -1      )
                  (    -1          1         -1      )

 cart.    s(32) = (  0.0000000  1.0000000  0.0000000 )
                  ( -1.0000000  0.0000000  0.0000000 )
                  (  0.0000000  0.0000000 -1.0000000 )


      isym = 33     inv. 180 deg rotation - cart. axis [1,0,1]   

 cryst.   s(33) = (    -1          1         -1      )
                  (     0          1          0      )
                  (     0          0          1      )

 cart.    s(33) = (  0.0000000  0.0000000 -1.0000000 )
                  (  0.0000000  1.0000000  0.0000000 )
                  ( -1.0000000  0.0000000  0.0000000 )


      isym = 34     inv. 180 deg rotation - cart. axis [-1,0,1]  

 cryst.   s(34) = (     1          0          0      )
                  (     0          0         -1      )
                  (     0         -1          0      )

 cart.    s(34) = (  0.0000000  0.0000000  1.0000000 )
                  (  0.0000000  1.0000000  0.0000000 )
                  (  1.0000000  0.0000000  0.0000000 )


      isym = 35     inv.  90 deg rotation - cart. axis [0,1,0]   

 cryst.   s(35) = (     0          0          1      )
                  (    -1          0          0      )
                  (    -1          1         -1      )

 cart.    s(35) = (  0.0000000  0.0000000 -1.0000000 )
                  (  0.0000000 -1.0000000  0.0000000 )
                  (  1.0000000  0.0000000  0.0000000 )


      isym = 36     inv.  90 deg rotation - cart. axis [0,-1,0]  

 cryst.   s(36) = (     0         -1          0      )
                  (     1         -1          1      )
                  (     1          0          0      )

 cart.    s(36) = (  0.0000000  0.0000000  1.0000000 )
                  (  0.0000000 -1.0000000  0.0000000 )
                  ( -1.0000000  0.0000000  0.0000000 )


      isym = 37     inv. 180 deg rotation - cart. axis [0,1,1]   

 cryst.   s(37) = (     0         -1          0      )
                  (    -1          0          0      )
                  (     0          0          1      )

 cart.    s(37) = (  1.0000000  0.0000000  0.0000000 )
                  (  0.0000000  0.0000000 -1.0000000 )
                  (  0.0000000 -1.0000000  0.0000000 )


      isym = 38     inv. 180 deg rotation - cart. axis [0,1,-1]  

 cryst.   s(38) = (     1          0          0      )
                  (     0          1          0      )
                  (    -1          1         -1      )

 cart.    s(38) = (  1.0000000  0.0000000  0.0000000 )
                  (  0.0000000  0.0000000  1.0000000 )
                  (  0.0000000  1.0000000  0.0000000 )


      isym = 39     inv.  90 deg rotation - cart. axis [-1,0,0]  

 cryst.   s(39) = (     0          0          1      )
                  (     1         -1          1      )
                  (     0         -1          0      )

 cart.    s(39) = ( -1.0000000  0.0000000  0.0000000 )
                  (  0.0000000  0.0000000 -1.0000000 )
                  (  0.0000000  1.0000000  0.0000000 )


      isym = 40     inv.  90 deg rotation - cart. axis [1,0,0]   

 cryst.   s(40) = (    -1          1         -1      )
                  (     0          0         -1      )
                  (     1          0          0      )

 cart.    s(40) = ( -1.0000000  0.0000000  0.0000000 )
                  (  0.0000000  0.0000000  1.0000000 )
                  (  0.0000000 -1.0000000  0.0000000 )


      isym = 41     inv. 120 deg rotation - cart. axis [-1,-1,-1]

 cryst.   s(41) = (    -1          0          0      )
                  (     0          0          1      )
                  (     1         -1          1      )

 cart.    s(41) = (  0.0000000 -1.0000000  0.0000000 )
                  (  0.0000000  0.0000000 -1.0000000 )
                  ( -1.0000000  0.0000000  0.0000000 )


      isym = 42     inv. 120 deg rotation - cart. axis [-1,1,1]  

 cryst.   s(42) = (     1         -1          1      )
                  (     0         -1          0      )
                  (    -1          0          0      )

 cart.    s(42) = (  0.0000000  1.0000000  0.0000000 )
                  (  0.0000000  0.0000000 -1.0000000 )
                  (  1.0000000  0.0000000  0.0000000 )


      isym = 43     inv. 120 deg rotation - cart. axis [1,1,-1]  

 cryst.   s(43) = (     0          1          0      )
                  (    -1          1         -1      )
                  (     0          0         -1      )

 cart.    s(43) = (  0.0000000 -1.0000000  0.0000000 )
                  (  0.0000000  0.0000000  1.0000000 )
                  (  1.0000000  0.0000000  0.0000000 )


      isym = 44     inv. 120 deg rotation - cart. axis [1,-1,1]  

 cryst.   s(44) = (     0          0         -1      )
                  (     1          0          0      )
                  (     0          1          0      )

 cart.    s(44) = (  0.0000000  1.0000000  0.0000000 )
                  (  0.0000000  0.0000000  1.0000000 )
                  ( -1.0000000  0.0000000  0.0000000 )


      isym = 45     inv. 120 deg rotation - cart. axis [1,1,1]   

 cryst.   s(45) = (    -1          0          0      )
                  (    -1          1         -1      )
                  (     0          1          0      )

 cart.    s(45) = (  0.0000000  0.0000000 -1.0000000 )
                  ( -1.0000000  0.0000000  0.0000000 )
                  (  0.0000000 -1.0000000  0.0000000 )


      isym = 46     inv. 120 deg rotation - cart. axis [-1,1,-1] 

 cryst.   s(46) = (     0          1          0      )
                  (     0          0          1      )
                  (    -1          0          0      )

 cart.    s(46) = (  0.0000000  0.0000000 -1.0000000 )
                  (  1.0000000  0.0000000  0.0000000 )
                  (  0.0000000  1.0000000  0.0000000 )


      isym = 47     inv. 120 deg rotation - cart. axis [1,-1,-1] 

 cryst.   s(47) = (     0          0         -1      )
                  (     0         -1          0      )
                  (     1         -1          1      )

 cart.    s(47) = (  0.0000000  0.0000000  1.0000000 )
                  (  1.0000000  0.0000000  0.0000000 )
                  (  0.0000000 -1.0000000  0.0000000 )


      isym = 48     inv. 120 deg rotation - cart. axis [-1,-1,1] 

 cryst.   s(48) = (     1         -1          1      )
                  (     1          0          0      )
                  (     0          0         -1      )

 cart.    s(48) = (  0.0000000  0.0000000  1.0000000 )
                  ( -1.0000000  0.0000000  0.0000000 )
                  (  0.0000000  1.0000000  0.0000000 )


     point group O_h (m-3m) 
     there are 10 classes
     the character table:

       E     8C3   6C2'  6C4   3C2   i     6S4   8S6   3s_h  6s_d 
A_1g   1.00  1.00  1.00  1.00  1.00  1.00  1.00  1.00  1.00  1.00
A_2g   1.00  1.00 -1.00 -1.00  1.00  1.00 -1.00  1.00  1.00 -1.00
E_g    2.00 -1.00  0.00  0.00  2.00  2.00  0.00 -1.00  2.00  0.00
T_1g   3.00  0.00 -1.00  1.00 -1.00  3.00  1.00  0.00 -1.00 -1.00
T_2g   3.00  0.00  1.00 -1.00 -1.00  3.00 -1.00  0.00 -1.00  1.00
A_1u   1.00  1.00  1.00  1.00  1.00 -1.00 -1.00 -1.00 -1.00 -1.00
A_2u   1.00  1.00 -1.00 -1.00  1.00 -1.00  1.00 -1.00 -1.00  1.00
E_u    2.00 -1.00  0.00  0.00  2.00 -2.00  0.00  1.00 -2.00  0.00
T_1u   3.00  0.00 -1.00  1.00 -1.00 -3.00 -1.00  0.00  1.00  1.00
T_2u   3.00  0.00  1.00 -1.00 -1.00 -3.00  1.00  0.00  1.00 -1.00

     the symmetry operations in each class:
     E        1
     3C2      2    4    3
     6C2'     5    6   14   13   10    9
     6C4      7    8   15   16   12   11
     8C3     17   19   20   18   24   21   22   23
     i       25
     3s_h    26   28   27
     6s_d    29   30   38   37   34   33
     6S4     31   32   39   40   36   35
     8S6     41   43   44   42   48   45   46   47

   Cartesian axes

     site n.     atom                  positions (alat units)
         1           Fe  tau(   1) = (   0.0000000   0.0000000   0.0000000  )
         2           Fe  tau(   2) = (   0.2500000   0.2500000   0.2500000  )
         3           Fe  tau(   3) = (  -0.2500000   0.2500000   0.2500000  )
         4           Fe  tau(   4) = (   0.0000000   0.5000000   0.5000000  )
         5           Fe  tau(   5) = (  -0.2500000  -0.2500000   0.2500000  )
         6           Fe  tau(   6) = (   0.0000000   0.0000000   0.5000000  )
         7           Fe  tau(   7) = (  -0.5000000   0.0000000   0.5000000  )
         8           Fe  tau(   8) = (  -0.2500000   0.2500000   0.7500000  )

   Crystallographic axes

     site n.     atom                  positions (cryst. coord.)
         1           Fe  tau(   1) = (  0.0000000  0.0000000  0.0000000  )
         2           Fe  tau(   2) = (  0.5000000  0.0000000  0.0000000  )
         3           Fe  tau(   3) = (  0.0000000  0.5000000  0.0000000  )
         4           Fe  tau(   4) = (  0.5000000  0.5000000  0.0000000  )
         5           Fe  tau(   5) = (  0.0000000  0.0000000  0.5000000  )
         6           Fe  tau(   6) = (  0.5000000  0.0000000  0.5000000  )
         7           Fe  tau(   7) = (  0.0000000  0.5000000  0.5000000  )
         8           Fe  tau(   8) = (  0.5000000  0.5000000  0.5000000  )

     number of k points=   120  Methfessel-Paxton smearing, width (Ry)=  0.0400
                       cart. coord. in units 2pi/alat
        k(    1) = (   0.0000000   0.0000000   0.0000000), wk =   0.0005464
        k(    2) = (  -0.0500000   0.0500000   0.0500000), wk =   0.0010929
        k(    3) = (  -0.1000000   0.1000000   0.1000000), wk =   0.0016393
        k(    4) = (  -0.1500000   0.1500000   0.1500000), wk =   0.0021858
        k(    5) = (  -0.2000000   0.2000000   0.2000000), wk =   0.0027322
        k(    6) = (  -0.2500000   0.2500000   0.2500000), wk =   0.0032787
        k(    7) = (  -0.3000000   0.3000000   0.3000000), wk =   0.0038251
        k(    8) = (  -0.3500000   0.3500000   0.3500000), wk =   0.0043716
        k(    9) = (  -0.4000000   0.4000000   0.4000000), wk =   0.0049180
        k(   10) = (  -0.4500000   0.4500000   0.4500000), wk =   0.0054645
        k(   11) = (  -0.5000000   0.5000000   0.5000000), wk =   0.0060109
        k(   12) = (   0.4500000  -0.4500000   0.5500000), wk =   0.0065574
        k(   13) = (   0.4000000  -0.4000000   0.6000000), wk =   0.0071038
        k(   14) = (   0.3500000  -0.3500000   0.6500000), wk =   0.0076503
        k(   15) = (   0.3000000  -0.3000000   0.7000000), wk =   0.0081967
        k(   16) = (   0.2500000  -0.2500000   0.7500000), wk =   0.0087432
        k(   17) = (   0.2000000  -0.2000000   0.8000000), wk =   0.0092896
        k(   18) = (   0.1500000  -0.1500000   0.8500000), wk =   0.0098361
        k(   19) = (   0.1000000  -0.1000000   0.9000000), wk =   0.0103825
        k(   20) = (   0.0500000  -0.0500000   0.9500000), wk =   0.0109290
        k(   21) = (   0.0000000   0.0000000   1.0000000), wk =   0.0114754
        k(   22) = (   0.0500000   0.9500000   0.0000000), wk =   0.0120219
        k(   23) = (   0.1000000   0.9000000   0.0000000), wk =   0.0125683
        k(   24) = (   0.1500000   0.8500000   0.0000000), wk =   0.0131148
        k(   25) = (   0.2000000   0.8000000   0.0000000), wk =   0.0136612
        k(   26) = (   0.2500000   0.7500000   0.0000000), wk =   0.0142077
        k(   27) = (   0.3000000   0.7000000   0.0000000), wk =   0.0147541
        k(   28) = (   0.3500000   0.6500000   0.0000000), wk =   0.0153005
        k(   29) = (   0.4000000   0.6000000   0.0000000), wk =   0.0158470
        k(   30) = (   0.4500000   0.5500000   0.0000000), wk =   0.0163934
        k(   31) = (   0.5000000   0.5000000   0.0000000), wk =   0.0169399
        k(   32) = (   0.5500000   0.4500000   0.0000000), wk =   0.0174863
        k(   33) = (   0.6000000   0.4000000   0.0000000), wk =   0.0180328
        k(   34) = (   0.6500000   0.3500000   0.0000000), wk =   0.0185792
        k(   35) = (   0.7000000   0.3000000   0.0000000), wk =   0.0191257
        k(   36) = (   0.7500000   0.2500000   0.0000000), wk =   0.0196721
        k(   37) = (   0.8000000   0.2000000   0.0000000), wk =   0.0202186
        k(   38) = (   0.8500000   0.1500000   0.0000000), wk =   0.0207650
        k(   39) = (   0.9000000   0.1000000   0.0000000), wk =   0.0213115
        k(   40) = (   0.9500000   0.0500000   0.0000000), wk =   0.0218579
        k(   41) = (   0.0250000   0.0250000   0.9750000), wk =   0.0224044
        k(   42) = (   0.0500000   0.0500000   0.9500000), wk =   0.0229508
        k(   43) = (   0.0750000   0.0750000   0.9250000), wk =   0.0234973
        k(   44) = (   0.1000000   0.1000000   0.9000000), wk =   0.0240437
        k(   45) = (   0.1250000   0.1250000   0.8750000), wk =   0.0245902
        k(   46) = (   0.1500000   0.1500000   0.8500000), wk =   0.0251366
        k(   47) = (   0.1750000   0.1750000   0.8250000), wk =   0.0256831
        k(   48) = (   0.2000000   0.2000000   0.8000000), wk =   0.0262295
        k(   49) = (   0.2250000   0.2250000   0.7750000), wk =   0.0267760
        k(   50) = (   0.2500000   0.2500000   0.7500000), wk =   0.0273224
        k(   51) = (   0.2750000   0.2750000   0.7250000), wk =   0.0278689
        k(   52) = (   0.3000000   0.3000000   0.7000000), wk =   0.0284153
        k(   53) = (   0.3250000   0.3250000   0.6750000), wk =   0.0289617
        k(   54) = (   0.3500000   0.3500000   0.6500000), wk =   0.0295082
        k(   55) = (   0.3750000   0.3750000   0.6250000), wk =   0.0300546
        k(   56) = (   0.4000000   0.4000000   0.6000000), wk =   0.0306011
        k(   57) = (   0.4250000   0.4250000   0.5750000), wk =   0.0311475
        k(   58) = (   0.4500000   0.4500000   0.5500000), wk =   0.0316940
        k(   59) = (   0.4750000   0.4750000   0.5250000), wk =   0.0322404
        k(   60) = (   0.5000000   0.5000000   0.5000000), wk =   0.0327869
        k(   61) = (   0.0000000   0.0000000   0.0000000), wk =   0.0005464
        k(   62) = (  -0.0500000   0.0500000   0.0500000), wk =   0.0010929
        k(   63) = (  -0.1000000   0.1000000   0.1000000), wk =   0.0016393
        k(   64) = (  -0.1500000   0.1500000   0.1500000), wk =   0.0021858
        k(   65) = (  -0.2000000   0.2000000   0.2000000), wk =   0.0027322
        k(   66) = (  -0.2500000   0.2500000   0.2500000), wk =   0.0032787
        k(   67) = (  -0.3000000   0.3000000   0.3000000), wk =   0.0038251
        k(   68) = (  -0.3500000   0.3500000   0.3500000), wk =   0.0043716
        k(   69) = (  -0.4000000   0.4000000   0.4000000), wk =   0.0049180
        k(   70) = (  -0.4500000   0.4500000   0.4500000), wk =   0.0054645
        k(   71) = (  -0.5000000   0.5000000   0.5000000), wk =   0.0060109
        k(   72) = (   0.4500000  -0.4500000   0.5500000), wk =   0.0065574
        k(   73) = (   0.4000000  -0.4000000   0.6000000), wk =   0.0071038
        k(   74) = (   0.3500000  -0.3500000   0.6500000), wk =   0.0076503
        k(   75) = (   0.3000000  -0.3000000   0.7000000), wk =   0.0081967
        k(   76) = (   0.2500000  -0.2500000   0.7500000), wk =   0.0087432
        k(   77) = (   0.2000000  -0.2000000   0.8000000), wk =   0.0092896
        k(   78) = (   0.1500000  -0.1500000   0.8500000), wk =   0.0098361
        k(   79) = (   0.1000000  -0.1000000   0.9000000), wk =   0.0103825
        k(   80) = (   0.0500000  -0.0500000   0.9500000), wk =   0.0109290
        k(   81) = (   0.0000000   0.0000000   1.0000000), wk =   0.0114754
        k(   82) = (   0.0500000   0.9500000   0.0000000), wk =   0.0120219
        k(   83) = (   0.1000000   0.9000000   0.0000000), wk =   0.0125683
        k(   84) = (   0.1500000   0.8500000   0.0000000), wk =   0.0131148
        k(   85) = (   0.2000000   0.8000000   0.0000000), wk =   0.0136612
        k(   86) = (   0.2500000   0.7500000   0.0000000), wk =   0.0142077
        k(   87) = (   0.3000000   0.7000000   0.0000000), wk =   0.0147541
        k(   88) = (   0.3500000   0.6500000   0.0000000), wk =   0.0153005
        k(   89) = (   0.4000000   0.6000000   0.0000000), wk =   0.0158470
        k(   90) = (   0.4500000   0.5500000   0.0000000), wk =   0.0163934
        k(   91) = (   0.5000000   0.5000000   0.0000000), wk =   0.0169399
        k(   92) = (   0.5500000   0.4500000   0.0000000), wk =   0.0174863
        k(   93) = (   0.6000000   0.4000000   0.0000000), wk =   0.0180328
        k(   94) = (   0.6500000   0.3500000   0.0000000), wk =   0.0185792
        k(   95) = (   0.7000000   0.3000000   0.0000000), wk =   0.0191257
        k(   96) = (   0.7500000   0.2500000   0.0000000), wk =   0.0196721
        k(   97) = (   0.8000000   0.2000000   0.0000000), wk =   0.0202186
        k(   98) = (   0.8500000   0.1500000   0.0000000), wk =   0.0207650
        k(   99) = (   0.9000000   0.1000000   0.0000000), wk =   0.0213115
        k(  100) = (   0.9500000   0.0500000   0.0000000), wk =   0.0218579
        k(  101) = (   0.0250000   0.0250000   0.9750000), wk =   0.0224044
        k(  102) = (   0.0500000   0.0500000   0.9500000), wk =   0.0229508
        k(  103) = (   0.0750000   0.0750000   0.9250000), wk =   0.0234973
        k(  104) = (   0.1000000   0.1000000   0.9000000), wk =   0.0240437
        k(  105) = (   0.1250000   0.1250000   0.8750000), wk =   0.0245902
        k(  106) = (   0.1500000   0.1500000   0.8500000), wk =   0.0251366
        k(  107) = (   0.1750000   0.1750000   0.8250000), wk =   0.0256831
        k(  108) = (   0.2000000   0.2000000   0.8000000), wk =   0.0262295
        k(  109) = (   0.2250000   0.2250000   0.7750000), wk =   0.0267760
        k(  110) = (   0.2500000   0.2500000   0.7500000), wk =   0.0273224
        k(  111) = (   0.2750000   0.2750000   0.7250000), wk =   0.0278689
        k(  112) = (   0.3000000   0.3000000   0.7000000), wk =   0.0284153
        k(  113) = (   0.3250000   0.3250000   0.6750000), wk =   0.0289617
        k(  114) = (   0.3500000   0.3500000   0.6500000), wk =   0.0295082
        k(  115) = (   0.3750000   0.3750000   0.6250000), wk =   0.0300546
        k(  116) = (   0.4000000   0.4000000   0.6000000), wk =   0.0306011
        k(  117) = (   0.4250000   0.4250000   0.5750000), wk =   0.0311475
        k(  118) = (   0.4500000   0.4500000   0.5500000), wk =   0.0316940
        k(  119) = (   0.4750000   0.4750000   0.5250000), wk =   0.0322404
        k(  120) = (   0.5000000   0.5000000   0.5000000), wk =   0.0327869

                       cryst. coord.
        k(    1) = (   0.0000000   0.0000000   0.0000000), wk =   0.0005464
        k(    2) = (   0.0250000   0.0750000   0.0250000), wk =   0.0010929
        k(    3) = (   0.0500000   0.1500000   0.0500000), wk =   0.0016393
        k(    4) = (   0.0750000   0.2250000   0.0750000), wk =   0.0021858
        k(    5) = (   0.1000000   0.3000000   0.1000000), wk =   0.0027322
        k(    6) = (   0.1250000   0.3750000   0.1250000), wk =   0.0032787
        k(    7) = (   0.1500000   0.4500000   0.1500000), wk =   0.0038251
        k(    8) = (   0.1750000   0.5250000   0.1750000), wk =   0.0043716
        k(    9) = (   0.2000000   0.6000000   0.2000000), wk =   0.0049180
        k(   10) = (   0.2250000   0.6750000   0.2250000), wk =   0.0054645
        k(   11) = (   0.2500000   0.7500000   0.2500000), wk =   0.0060109
        k(   12) = (   0.2750000  -0.1750000   0.2750000), wk =   0.0065574
        k(   13) = (   0.3000000  -0.1000000   0.3000000), wk =   0.0071038
        k(   14) = (   0.3250000  -0.0250000   0.3250000), wk =   0.0076503
        k(   15) = (   0.3500000   0.0500000   0.3500000), wk =   0.0081967
        k(   16) = (   0.3750000   0.1250000   0.3750000), wk =   0.0087432
        k(   17) = (   0.4000000   0.2000000   0.4000000), wk =   0.0092896
        k(   18) = (   0.4250000   0.2750000   0.4250000), wk =   0.0098361
        k(   19) = (   0.4500000   0.3500000   0.4500000), wk =   0.0103825
        k(   20) = (   0.4750000   0.4250000   0.4750000), wk =   0.0109290
        k(   21) = (   0.5000000   0.5000000   0.5000000), wk =   0.0114754
        k(   22) = (   0.5000000   0.4500000  -0.5000000), wk =   0.0120219
        k(   23) = (   0.5000000   0.4000000  -0.5000000), wk =   0.0125683
        k(   24) = (   0.5000000   0.3500000  -0.5000000), wk =   0.0131148
        k(   25) = (   0.5000000   0.3000000  -0.5000000), wk =   0.0136612
        k(   26) = (   0.5000000   0.2500000  -0.5000000), wk =   0.0142077
        k(   27) = (   0.5000000   0.2000000  -0.5000000), wk =   0.0147541
        k(   28) = (   0.5000000   0.1500000  -0.5000000), wk =   0.0153005
        k(   29) = (   0.5000000   0.1000000  -0.5000000), wk =   0.0158470
        k(   30) = (   0.5000000   0.0500000  -0.5000000), wk =   0.0163934
        k(   31) = (   0.5000000   0.0000000  -0.5000000), wk =   0.0169399
        k(   32) = (   0.5000000  -0.0500000  -0.5000000), wk =   0.0174863
        k(   33) = (   0.5000000  -0.1000000  -0.5000000), wk =   0.0180328
        k(   34) = (   0.5000000  -0.1500000  -0.5000000), wk =   0.0185792
        k(   35) = (   0.5000000  -0.2000000  -0.5000000), wk =   0.0191257
        k(   36) = (   0.5000000  -0.2500000  -0.5000000), wk =   0.0196721
        k(   37) = (   0.5000000  -0.3000000  -0.5000000), wk =   0.0202186
        k(   38) = (   0.5000000  -0.3500000  -0.5000000), wk =   0.0207650
        k(   39) = (   0.5000000  -0.4000000  -0.5000000), wk =   0.0213115
        k(   40) = (   0.5000000  -0.4500000  -0.5000000), wk =   0.0218579
        k(   41) = (   0.5125000   0.4875000   0.4625000), wk =   0.0224044
        k(   42) = (   0.5250000   0.4750000   0.4250000), wk =   0.0229508
        k(   43) = (   0.5375000   0.4625000   0.3875000), wk =   0.0234973
        k(   44) = (   0.5500000   0.4500000   0.3500000), wk =   0.0240437
        k(   45) = (   0.5625000   0.4375000   0.3125000), wk =   0.0245902
        k(   46) = (   0.5750000   0.4250000   0.2750000), wk =   0.0251366
        k(   47) = (   0.5875000   0.4125000   0.2375000), wk =   0.0256831
        k(   48) = (   0.6000000   0.4000000   0.2000000), wk =   0.0262295
        k(   49) = (   0.6125000   0.3875000   0.1625000), wk =   0.0267760
        k(   50) = (   0.6250000   0.3750000   0.1250000), wk =   0.0273224
        k(   51) = (   0.6375000   0.3625000   0.0875000), wk =   0.0278689
        k(   52) = (   0.6500000   0.3500000   0.0500000), wk =   0.0284153
        k(   53) = (   0.6625000   0.3375000   0.0125000), wk =   0.0289617
        k(   54) = (   0.6750000   0.3250000  -0.0250000), wk =   0.0295082
        k(   55) = (   0.6875000   0.3125000  -0.0625000), wk =   0.0300546
        k(   56) = (   0.7000000   0.3000000  -0.1000000), wk =   0.0306011
        k(   57) = (   0.7125000   0.2875000  -0.1375000), wk =   0.0311475
        k(   58) = (   0.7250000   0.2750000  -0.1750000), wk =   0.0316940
        k(   59) = (   0.7375000   0.2625000  -0.2125000), wk =   0.0322404
        k(   60) = (   0.7500000   0.2500000  -0.2500000), wk =   0.0327869
        k(   61) = (   0.0000000   0.0000000   0.0000000), wk =   0.0005464
        k(   62) = (   0.0250000   0.0750000   0.0250000), wk =   0.0010929
        k(   63) = (   0.0500000   0.1500000   0.0500000), wk =   0.0016393
        k(   64) = (   0.0750000   0.2250000   0.0750000), wk =   0.0021858
        k(   65) = (   0.1000000   0.3000000   0.1000000), wk =   0.0027322
        k(   66) = (   0.1250000   0.3750000   0.1250000), wk =   0.0032787
        k(   67) = (   0.1500000   0.4500000   0.1500000), wk =   0.0038251
        k(   68) = (   0.1750000   0.5250000   0.1750000), wk =   0.0043716
        k(   69) = (   0.2000000   0.6000000   0.2000000), wk =   0.0049180
        k(   70) = (   0.2250000   0.6750000   0.2250000), wk =   0.0054645
        k(   71) = (   0.2500000   0.7500000   0.2500000), wk =   0.0060109
        k(   72) = (   0.2750000  -0.1750000   0.2750000), wk =   0.0065574
        k(   73) = (   0.3000000  -0.1000000   0.3000000), wk =   0.0071038
        k(   74) = (   0.3250000  -0.0250000   0.3250000), wk =   0.0076503
        k(   75) = (   0.3500000   0.0500000   0.3500000), wk =   0.0081967
        k(   76) = (   0.3750000   0.1250000   0.3750000), wk =   0.0087432
        k(   77) = (   0.4000000   0.2000000   0.4000000), wk =   0.0092896
        k(   78) = (   0.4250000   0.2750000   0.4250000), wk =   0.0098361
        k(   79) = (   0.4500000   0.3500000   0.4500000), wk =   0.0103825
        k(   80) = (   0.4750000   0.4250000   0.4750000), wk =   0.0109290
        k(   81) = (   0.5000000   0.5000000   0.5000000), wk =   0.0114754
        k(   82) = (   0.5000000   0.4500000  -0.5000000), wk =   0.0120219
        k(   83) = (   0.5000000   0.4000000  -0.5000000), wk =   0.0125683
        k(   84) = (   0.5000000   0.3500000  -0.5000000), wk =   0.0131148
        k(   85) = (   0.5000000   0.3000000  -0.5000000), wk =   0.0136612
        k(   86) = (   0.5000000   0.2500000  -0.5000000), wk =   0.0142077
        k(   87) = (   0.5000000   0.2000000  -0.5000000), wk =   0.0147541
        k(   88) = (   0.5000000   0.1500000  -0.5000000), wk =   0.0153005
        k(   89) = (   0.5000000   0.1000000  -0.5000000), wk =   0.0158470
        k(   90) = (   0.5000000   0.0500000  -0.5000000), wk =   0.0163934
        k(   91) = (   0.5000000   0.0000000  -0.5000000), wk =   0.0169399
        k(   92) = (   0.5000000  -0.0500000  -0.5000000), wk =   0.0174863
        k(   93) = (   0.5000000  -0.1000000  -0.5000000), wk =   0.0180328
        k(   94) = (   0.5000000  -0.1500000  -0.5000000), wk =   0.0185792
        k(   95) = (   0.5000000  -0.2000000  -0.5000000), wk =   0.0191257
        k(   96) = (   0.5000000  -0.2500000  -0.5000000), wk =   0.0196721
        k(   97) = (   0.5000000  -0.3000000  -0.5000000), wk =   0.0202186
        k(   98) = (   0.5000000  -0.3500000  -0.5000000), wk =   0.0207650
        k(   99) = (   0.5000000  -0.4000000  -0.5000000), wk =   0.0213115
        k(  100) = (   0.5000000  -0.4500000  -0.5000000), wk =   0.0218579
        k(  101) = (   0.5125000   0.4875000   0.4625000), wk =   0.0224044
        k(  102) = (   0.5250000   0.4750000   0.4250000), wk =   0.0229508
        k(  103) = (   0.5375000   0.4625000   0.3875000), wk =   0.0234973
        k(  104) = (   0.5500000   0.4500000   0.3500000), wk =   0.0240437
        k(  105) = (   0.5625000   0.4375000   0.3125000), wk =   0.0245902
        k(  106) = (   0.5750000   0.4250000   0.2750000), wk =   0.0251366
        k(  107) = (   0.5875000   0.4125000   0.2375000), wk =   0.0256831
        k(  108) = (   0.6000000   0.4000000   0.2000000), wk =   0.0262295
        k(  109) = (   0.6125000   0.3875000   0.1625000), wk =   0.0267760
        k(  110) = (   0.6250000   0.3750000   0.1250000), wk =   0.0273224
        k(  111) = (   0.6375000   0.3625000   0.0875000), wk =   0.0278689
        k(  112) = (   0.6500000   0.3500000   0.0500000), wk =   0.0284153
        k(  113) = (   0.6625000   0.3375000   0.0125000), wk =   0.0289617
        k(  114) = (   0.6750000   0.3250000  -0.0250000), wk =   0.0295082
        k(  115) = (   0.6875000   0.3125000  -0.0625000), wk =   0.0300546
        k(  116) = (   0.7000000   0.3000000  -0.1000000), wk =   0.0306011
        k(  117) = (   0.7125000   0.2875000  -0.1375000), wk =   0.0311475
        k(  118) = (   0.7250000   0.2750000  -0.1750000), wk =   0.0316940
        k(  119) = (   0.7375000   0.2625000  -0.2125000), wk =   0.0322404
        k(  120) = (   0.7500000   0.2500000  -0.2500000), wk =   0.0327869

     Dense  grid:    55793 G-vectors     FFT dimensions: (  54,  54,  54)

     Smooth grid:    25939 G-vectors     FFT dimensions: (  45,  45,  45)

     Largest allocated arrays     est. size (Mb)     dimensions
        Kohn-Sham Wavefunctions         3.88 Mb     (   3300,   77)
        NL pseudopotentials             7.25 Mb     (   3300,  144)
        Each V/rho on FFT grid          4.81 Mb     ( 157464,   2)
        Each G-vector array             0.43 Mb     (  55793)
        G-vector shells                 0.00 Mb     (    411)
     Largest temporary arrays     est. size (Mb)     dimensions
        Each subspace H/S matrix        0.09 Mb     (  77,  77)
        Each <psi_i|beta_j> matrix      0.17 Mb     (    144,   77)

     Check: negative/imaginary core charge=   -0.000207    0.000000

     The potential is recalculated from file :
     ../tmp/FeSC.save/charge-density.dat

     Starting wfc are  104 randomized atomic wfcs

     total cpu time spent up to now is        3.8 secs

     per-process dynamical memory:    57.3 Mb

     Band Structure Calculation
     CG style diagonalization

     Computing kpt #:     1
     c_bands:  2 eigenvalues not converged
     total cpu time spent up to now is       75.2 secs

     Computing kpt #:     2
     total cpu time spent up to now is      176.8 secs

     Computing kpt #:     3
     total cpu time spent up to now is      264.3 secs

     Computing kpt #:     4
     total cpu time spent up to now is      330.4 secs

     Computing kpt #:     5
     total cpu time spent up to now is      389.6 secs

     Computing kpt #:     6
     total cpu time spent up to now is      474.0 secs

     Computing kpt #:     7
     total cpu time spent up to now is      564.6 secs

     Computing kpt #:     8
     c_bands:  1 eigenvalues not converged
     total cpu time spent up to now is      647.4 secs

     Computing kpt #:     9
     c_bands:  1 eigenvalues not converged
     total cpu time spent up to now is      718.6 secs

     Computing kpt #:    10
     c_bands:  1 eigenvalues not converged
     total cpu time spent up to now is      826.6 secs

     Computing kpt #:    11
     c_bands:  1 eigenvalues not converged
     total cpu time spent up to now is      920.4 secs

     Computing kpt #:    12
     total cpu time spent up to now is      984.3 secs

     Computing kpt #:    13
     c_bands:  2 eigenvalues not converged
     total cpu time spent up to now is     1056.9 secs

     Computing kpt #:    14
     total cpu time spent up to now is     1146.9 secs

     Computing kpt #:    15
     total cpu time spent up to now is     1230.4 secs

     Computing kpt #:    16
     total cpu time spent up to now is     1298.6 secs

     Computing kpt #:    17
     total cpu time spent up to now is     1359.3 secs

     Computing kpt #:    18
     total cpu time spent up to now is     1430.0 secs

     Computing kpt #:    19
     total cpu time spent up to now is     1489.6 secs

     Computing kpt #:    20
     total cpu time spent up to now is     1581.3 secs

     Computing kpt #:    21
     c_bands:  2 eigenvalues not converged
     total cpu time spent up to now is     1708.1 secs

     Computing kpt #:    22
     total cpu time spent up to now is     1787.1 secs

     Computing kpt #:    23
     total cpu time spent up to now is     1857.9 secs

     Computing kpt #:    24
     total cpu time spent up to now is     1925.5 secs

     Computing kpt #:    25
     total cpu time spent up to now is     1986.7 secs

     Computing kpt #:    26
     total cpu time spent up to now is     2052.2 secs

     Computing kpt #:    27
     total cpu time spent up to now is     2114.2 secs

     Computing kpt #:    28
     total cpu time spent up to now is     2184.1 secs

     Computing kpt #:    29
     total cpu time spent up to now is     2258.7 secs

     Computing kpt #:    30
     total cpu time spent up to now is     2324.4 secs

     Computing kpt #:    31
     total cpu time spent up to now is     2391.5 secs

     Computing kpt #:    32
     total cpu time spent up to now is     2452.7 secs

     Computing kpt #:    33
     total cpu time spent up to now is     2513.6 secs

     Computing kpt #:    34
     total cpu time spent up to now is     2581.5 secs

     Computing kpt #:    35
     total cpu time spent up to now is     2642.4 secs

     Computing kpt #:    36
     total cpu time spent up to now is     2709.2 secs

     Computing kpt #:    37
     total cpu time spent up to now is     2770.3 secs

     Computing kpt #:    38
     total cpu time spent up to now is     2840.6 secs

     Computing kpt #:    39
     total cpu time spent up to now is     2901.5 secs

     Computing kpt #:    40
     total cpu time spent up to now is     2968.9 secs

     Computing kpt #:    41
     total cpu time spent up to now is     3037.2 secs

     Computing kpt #:    42
     total cpu time spent up to now is     3098.6 secs

     Computing kpt #:    43
     total cpu time spent up to now is     3163.4 secs

     Computing kpt #:    44
     total cpu time spent up to now is     3222.3 secs

     Computing kpt #:    45
     total cpu time spent up to now is     3284.6 secs

     Computing kpt #:    46
     total cpu time spent up to now is     3352.9 secs

     Computing kpt #:    47
     total cpu time spent up to now is     3415.4 secs

     Computing kpt #:    48
     total cpu time spent up to now is     3476.7 secs

     Computing kpt #:    49
     total cpu time spent up to now is     3537.4 secs

     Computing kpt #:    50
     total cpu time spent up to now is     3631.8 secs

     Computing kpt #:    51
     total cpu time spent up to now is     3726.8 secs

     Computing kpt #:    52
     total cpu time spent up to now is     3789.0 secs

     Computing kpt #:    53
     total cpu time spent up to now is     3850.0 secs

     Computing kpt #:    54
     total cpu time spent up to now is     3909.2 secs

     Computing kpt #:    55
     total cpu time spent up to now is     4001.9 secs

     Computing kpt #:    56
     c_bands:  1 eigenvalues not converged
     total cpu time spent up to now is     4107.7 secs

     Computing kpt #:    57
     total cpu time spent up to now is     4171.0 secs

     Computing kpt #:    58
     c_bands:  1 eigenvalues not converged
     total cpu time spent up to now is     4242.3 secs

     Computing kpt #:    59
     c_bands:  1 eigenvalues not converged
     total cpu time spent up to now is     4343.6 secs

     Computing kpt #:    60
     c_bands:  1 eigenvalues not converged
     total cpu time spent up to now is     4434.3 secs

     Computing kpt #:    61
     c_bands:  2 eigenvalues not converged
     total cpu time spent up to now is     4504.0 secs

     Computing kpt #:    62
     c_bands:  4 eigenvalues not converged
     total cpu time spent up to now is     4581.0 secs

     Computing kpt #:    63
     c_bands:  2 eigenvalues not converged
     total cpu time spent up to now is     4667.4 secs

     Computing kpt #:    64
     c_bands:  1 eigenvalues not converged
     total cpu time spent up to now is     4791.1 secs

     Computing kpt #:    65
     c_bands:  1 eigenvalues not converged
     total cpu time spent up to now is     4890.3 secs

     Computing kpt #:    66
     c_bands:  2 eigenvalues not converged
     total cpu time spent up to now is     4971.6 secs

     Computing kpt #:    67
     c_bands:  1 eigenvalues not converged
     total cpu time spent up to now is     5048.8 secs

     Computing kpt #:    68
     c_bands:  1 eigenvalues not converged
     total cpu time spent up to now is     5120.3 secs

     Computing kpt #:    69
     c_bands:  1 eigenvalues not converged
     total cpu time spent up to now is     5195.7 secs

     Computing kpt #:    70
     c_bands:  1 eigenvalues not converged
     total cpu time spent up to now is     5314.1 secs

     Computing kpt #:    71
     c_bands:  1 eigenvalues not converged
     total cpu time spent up to now is     5404.1 secs

     Computing kpt #:    72
     total cpu time spent up to now is     5467.7 secs

     Computing kpt #:    73
     total cpu time spent up to now is     5535.0 secs

     Computing kpt #:    74
     total cpu time spent up to now is     5598.7 secs

     Computing kpt #:    75
     total cpu time spent up to now is     5662.5 secs

     Computing kpt #:    76
     total cpu time spent up to now is     5726.4 secs

     Computing kpt #:    77
     total cpu time spent up to now is     5834.4 secs

     Computing kpt #:    78
     total cpu time spent up to now is     5920.2 secs

     Computing kpt #:    79
     total cpu time spent up to now is     5999.0 secs

     Computing kpt #:    80
     total cpu time spent up to now is     6070.7 secs

     Computing kpt #:    81
     c_bands:  2 eigenvalues not converged
     total cpu time spent up to now is     6149.0 secs

     Computing kpt #:    82
     total cpu time spent up to now is     6226.3 secs

     Computing kpt #:    83
     total cpu time spent up to now is     6298.8 secs

     Computing kpt #:    84
     total cpu time spent up to now is     6375.6 secs

     Computing kpt #:    85
     total cpu time spent up to now is     6442.4 secs

     Computing kpt #:    86
     total cpu time spent up to now is     6506.9 secs

     Computing kpt #:    87
     total cpu time spent up to now is     6579.9 secs

     Computing kpt #:    88
     total cpu time spent up to now is     6647.7 secs

     Computing kpt #:    89
     total cpu time spent up to now is     6715.8 secs

     Computing kpt #:    90
     total cpu time spent up to now is     6783.7 secs

     Computing kpt #:    91
     c_bands:  3 eigenvalues not converged
     total cpu time spent up to now is     6857.7 secs

     Computing kpt #:    92
     total cpu time spent up to now is     6917.7 secs

     Computing kpt #:    93
     total cpu time spent up to now is     6984.3 secs

     Computing kpt #:    94
     total cpu time spent up to now is     7059.5 secs

     Computing kpt #:    95
     total cpu time spent up to now is     7122.3 secs

     Computing kpt #:    96
     total cpu time spent up to now is     7187.9 secs

     Computing kpt #:    97
     total cpu time spent up to now is     7257.2 secs

     Computing kpt #:    98
     total cpu time spent up to now is     7320.8 secs

     Computing kpt #:    99
     total cpu time spent up to now is     7401.3 secs

     Computing kpt #:   100
     total cpu time spent up to now is     7518.7 secs

     Computing kpt #:   101
     c_bands:  1 eigenvalues not converged
     total cpu time spent up to now is     7621.6 secs

     Computing kpt #:   102
     c_bands:  1 eigenvalues not converged
     total cpu time spent up to now is     7701.1 secs

     Computing kpt #:   103
     total cpu time spent up to now is     7768.0 secs

     Computing kpt #:   104
     total cpu time spent up to now is     7867.1 secs

     Computing kpt #:   105
     total cpu time spent up to now is     7970.4 secs

     Computing kpt #:   106
     total cpu time spent up to now is     8030.1 secs

     Computing kpt #:   107
     total cpu time spent up to now is     8096.7 secs

     Computing kpt #:   108
     total cpu time spent up to now is     8160.9 secs

     Computing kpt #:   109
     total cpu time spent up to now is     8246.6 secs

     Computing kpt #:   110
     total cpu time spent up to now is     8340.1 secs

     Computing kpt #:   111
     c_bands:  1 eigenvalues not converged
     total cpu time spent up to now is     8417.5 secs

     Computing kpt #:   112
     total cpu time spent up to now is     8487.5 secs

     Computing kpt #:   113
     total cpu time spent up to now is     8553.0 secs

     Computing kpt #:   114
     total cpu time spent up to now is     8652.2 secs

     Computing kpt #:   115
     total cpu time spent up to now is     8740.1 secs

     Computing kpt #:   116
     total cpu time spent up to now is     8808.6 secs

     Computing kpt #:   117
     total cpu time spent up to now is     8879.8 secs

     Computing kpt #:   118
     total cpu time spent up to now is     8948.0 secs

     Computing kpt #:   119
     total cpu time spent up to now is     9040.4 secs

     Computing kpt #:   120
     c_bands:  1 eigenvalues not converged
     total cpu time spent up to now is     9148.3 secs

     ethr =  7.81E-14,  avg # of iterations = 51.8

     total cpu time spent up to now is     9148.4 secs

     End of band structure calculation

 ------ SPIN UP ------------


          k = 0.0000 0.0000 0.0000     band energies (ev):

   -70.8681 -70.8011 -70.8011 -70.8011 -70.8010 -70.8010 -70.8010 -70.7513
   -37.0541 -37.0541 -37.0541 -37.0541 -37.0541 -37.0541 -36.9544 -36.9544
   -36.9544 -36.8150 -36.8150 -36.8150 -36.8148 -36.8148 -36.8148 -36.6922
   -36.6922 -36.6922 -36.6917 -36.6917 -36.6917 -36.6917 -36.6917 -36.6917
     8.9298  12.4535  12.4535  12.4535  12.4535  12.4535  12.4535  12.6054
    12.6054  13.9081  13.9081  13.9081  13.9081  13.9081  13.9081  14.9320
    14.9320  14.9320  16.1983  16.1983  16.2210  16.2210  16.2210  16.2211
    16.2211  16.2211  16.3771  16.3771  16.3771  16.3772  16.3772  16.3772
    17.2308  17.2308  17.2308  17.4869  17.4869  17.4869  17.4869  17.4869
    17.4869  17.7033  17.7033  17.7033  17.7033

          k =-0.0500 0.0500 0.0500     band energies (ev):

   -70.8675 -70.8015 -70.8015 -70.8014 -70.8007 -70.8007 -70.8007 -70.7518
   -37.0530 -37.0530 -37.0530 -37.0514 -37.0514 -37.0514 -36.9546 -36.9546
   -36.9513 -36.8161 -36.8161 -36.8161 -36.8145 -36.8145 -36.8145 -36.6960
   -36.6938 -36.6938 -36.6938 -36.6926 -36.6926 -36.6922 -36.6922 -36.6922
     8.9679  12.4614  12.4614  12.4614  12.4773  12.4773  12.4773  12.6216
    12.6216  13.9128  13.9128  13.9128  13.9221  13.9221  13.9221  14.9250
    14.9250  14.9552  16.1934  16.1934  16.2094  16.2094  16.2094  16.2162
    16.2162  16.2162  16.2555  16.2555  16.2555  16.3755  16.3756  16.3756
    17.1744  17.2217  17.2217  17.2391  17.2391  17.2391  17.3341  17.3341
    17.3341  17.8355  17.8355  17.8355  18.0059

          k =-0.1000 0.1000 0.1000     band energies (ev):

   -70.8657 -70.8026 -70.8026 -70.8026 -70.7998 -70.7998 -70.7997 -70.7531
   -37.0494 -37.0494 -37.0494 -37.0434 -37.0434 -37.0434 -36.9551 -36.9551
   -36.9421 -36.8200 -36.8200 -36.8200 -36.8131 -36.8131 -36.8131 -36.7072
   -36.6999 -36.6999 -36.6999 -36.6938 -36.6938 -36.6938 -36.6938 -36.6938
     9.0817  12.4840  12.4840  12.4840  12.5472  12.5472  12.5472  12.6698
    12.6698  13.9265  13.9265  13.9265  13.9627  13.9627  13.9627  14.9034
    14.9034  15.0244  15.9645  15.9645  15.9645  16.1776  16.1776  16.1776
    16.1799  16.1799  16.1996  16.1996  16.1996  16.3711  16.3711  16.3711
    16.8199  16.8199  16.8199  17.0108  17.1951  17.1951  17.2218  17.2218
    17.2218  17.9384  17.9384  17.9384  18.4948

          k =-0.1500 0.1500 0.1500     band energies (ev):

   -70.8627 -70.8044 -70.8044 -70.8044 -70.7982 -70.7982 -70.7982 -70.7553
   -37.0436 -37.0436 -37.0436 -37.0309 -37.0309 -37.0309 -36.9560 -36.9560
   -36.9274 -36.8269 -36.8269 -36.8269 -36.8106 -36.8106 -36.8106 -36.7250
   -36.7089 -36.7089 -36.7089 -36.6964 -36.6964 -36.6964 -36.6957 -36.6957
     9.2690  12.5176  12.5176  12.5176  12.6591  12.6591  12.6591  12.7485
    12.7485  13.9483  13.9484  13.9484  14.0248  14.0248  14.0248  14.8659
    14.8659  15.1396  15.6153  15.6153  15.6153  16.1336  16.1336  16.1336
    16.1346  16.1346  16.1346  16.1617  16.1617  16.3641  16.3641  16.3641
    16.3777  16.3777  16.3777  16.7546  17.1518  17.1518  17.1544  17.1544
    17.1544  17.9636  17.9636  17.9636  19.0542

          k =-0.2000 0.2000 0.2000     band energies (ev):

   -70.8587 -70.8068 -70.8068 -70.8068 -70.7962 -70.7962 -70.7962 -70.7583
   -37.0357 -37.0357 -37.0357 -37.0150 -37.0150 -37.0150 -36.9570 -36.9570
   -36.9080 -36.8377 -36.8377 -36.8377 -36.8064 -36.8064 -36.8064 -36.7487
   -36.7193 -36.7193 -36.7193 -36.7000 -36.7000 -36.7000 -36.6985 -36.6985
     9.5265  12.5554  12.5554  12.5554  12.8064  12.8064  12.8064  12.8553
    12.8553  13.9770  13.9770  13.9770  14.0992  14.0992  14.0992  14.8110
    14.8110  15.2645  15.2645  15.2645  15.2997  15.7637  15.7637  15.7637
    16.0912  16.0912  16.0912  16.1438  16.1438  16.2202  16.2202  16.2202
    16.3548  16.3548  16.3548  16.4274  17.0938  17.0938  17.0978  17.0978
    17.0978  17.9303  17.9303  17.9303  19.6621

          k =-0.2500 0.2500 0.2500     band energies (ev):

   -70.8539 -70.8096 -70.8096 -70.8096 -70.7938 -70.7938 -70.7938 -70.7618
   -37.0258 -37.0258 -37.0258 -36.9973 -36.9973 -36.9973 -36.9580 -36.9580
   -36.8850 -36.8527 -36.8527 -36.8527 -36.8002 -36.8002 -36.8002 -36.7768
   -36.7295 -36.7295 -36.7295 -36.7044 -36.7044 -36.7044 -36.7021 -36.7021
     9.8493  12.5862  12.5862  12.5862  12.9812  12.9812  12.9812  12.9869
    12.9869  14.0108  14.0108  14.0108  14.1708  14.1708  14.1708  14.7380
    14.7380  14.9348  14.9348  14.9348  15.2896  15.2896  15.2896  15.5038
    16.0535  16.0691  16.0691  16.0691  16.1313  16.1313  16.1888  16.1888
    16.1888  16.3432  16.3432  16.3432  17.0238  17.0238  17.0389  17.0389
    17.0389  17.8556  17.8556  17.8556  20.3096

          k =-0.3000 0.3000 0.3000     band energies (ev):

   -70.8484 -70.8127 -70.8127 -70.8127 -70.7913 -70.7913 -70.7912 -70.7658
   -37.0143 -37.0143 -37.0143 -36.9796 -36.9796 -36.9796 -36.9589 -36.9589
   -36.8717 -36.8717 -36.8717 -36.8596 -36.8080 -36.7912 -36.7912 -36.7912
   -36.7386 -36.7386 -36.7386 -36.7096 -36.7096 -36.7096 -36.7068 -36.7068
    10.2308  12.5928  12.5928  12.5928  13.1388  13.1388  13.1741  13.1741
    13.1741  14.0483  14.0484  14.0484  14.2213  14.2213  14.2213  14.6359
    14.6359  14.6359  14.6484  14.6484  14.8659  14.8659  14.8659  15.6569
    15.7512  16.0878  16.0878  16.0878  16.1274  16.1274  16.1708  16.1708
    16.1708  16.3289  16.3289  16.3289  16.9449  16.9449  16.9728  16.9728
    16.9728  17.7518  17.7518  17.7518  20.9925

          k =-0.3500 0.3500 0.3500     band energies (ev):

   -70.8424 -70.8159 -70.8159 -70.8159 -70.7887 -70.7887 -70.7887 -70.7700
   -37.0013 -37.0013 -37.0013 -36.9633 -36.9633 -36.9633 -36.9594 -36.9594
   -36.8934 -36.8934 -36.8934 -36.8404 -36.8334 -36.7795 -36.7795 -36.7795
   -36.7463 -36.7463 -36.7463 -36.7155 -36.7155 -36.7155 -36.7124 -36.7124
    10.6624  12.5540  12.5540  12.5540  13.3056  13.3056  13.3757  13.3757
    13.3757  14.0883  14.0883  14.0883  14.2366  14.2366  14.2366  14.3730
    14.3730  14.3730  14.5357  14.5357  14.5357  14.5461  14.5461  15.2591
    16.0418  16.1337  16.1337  16.1609  16.1609  16.1609  16.1612  16.1612
    16.1612  16.3103  16.3103  16.3103  16.8603  16.8603  16.8975  16.8975
    16.8975  17.6276  17.6276  17.6276  21.7087

          k =-0.4000 0.4000 0.4000     band energies (ev):

   -70.8362 -70.8189 -70.8189 -70.8189 -70.7863 -70.7863 -70.7862 -70.7743
   -36.9872 -36.9872 -36.9872 -36.9593 -36.9593 -36.9495 -36.9495 -36.9495
   -36.9161 -36.9161 -36.9160 -36.8725 -36.8079 -36.7655 -36.7655 -36.7655
   -36.7529 -36.7529 -36.7529 -36.7219 -36.7219 -36.7219 -36.7191 -36.7191
    11.1332  12.4546  12.4546  12.4546  13.4806  13.4806  13.5737  13.5737
    13.5737  14.1298  14.1298  14.1298  14.1489  14.1489  14.1489  14.2174
    14.2174  14.2174  14.3240  14.3240  14.3240  14.4362  14.4362  14.8788
    16.1497  16.1497  16.1619  16.1619  16.1619  16.2853  16.2853  16.2853
    16.2862  16.2862  16.2862  16.3763  16.7740  16.7740  16.8120  16.8121
    16.8121  17.4893  17.4893  17.4893  22.4569

          k =-0.4500 0.4500 0.4500     band energies (ev):

   -70.8300 -70.8217 -70.8217 -70.8216 -70.7842 -70.7842 -70.7842 -70.7786
   -36.9723 -36.9723 -36.9723 -36.9585 -36.9585 -36.9382 -36.9382 -36.9382
   -36.9378 -36.9378 -36.9378 -36.9026 -36.7846 -36.7590 -36.7590 -36.7590
   -36.7503 -36.7503 -36.7503 -36.7287 -36.7287 -36.7287 -36.7269 -36.7269
    11.6294  12.3038  12.3038  12.3038  13.6561  13.6561  13.7435  13.7435
    13.7435  13.9654  13.9654  13.9654  14.1729  14.1729  14.1729  14.1910
    14.1910  14.1910  14.2276  14.2276  14.2276  14.3247  14.3247  14.5311
    16.1735  16.1735  16.1752  16.1752  16.1752  16.2507  16.2507  16.2507
    16.4450  16.4450  16.4450  16.6894  16.6894  16.7163  16.7164  16.7164
    16.7574  17.3419  17.3419  17.3419  23.2366

          k =-0.5000 0.5000 0.5000     band energies (ev):

   -70.8239 -70.8239 -70.8239 -70.8239 -70.7826 -70.7826 -70.7826 -70.7826
   -36.9568 -36.9568 -36.9568 -36.9568 -36.9568 -36.9568 -36.9568 -36.9568
   -36.9292 -36.9292 -36.9292 -36.9292 -36.7648 -36.7648 -36.7648 -36.7648
   -36.7358 -36.7358 -36.7358 -36.7358 -36.7358 -36.7358 -36.7358 -36.7358
    12.1338  12.1338  12.1338  12.1338  13.8236  13.8236  13.8236  13.8236
    13.8236  13.8236  13.8237  13.8237  14.2179  14.2179  14.2179  14.2179
    14.2179  14.2179  14.2179  14.2179  14.2278  14.2278  14.2278  14.2278
    16.2027  16.2027  16.2027  16.2027  16.2027  16.2027  16.2027  16.2027
    16.6107  16.6107  16.6107  16.6107  16.6107  16.6107  16.6107  16.6107
    17.1895  17.1895  17.1895  17.1895  24.0477

          k = 0.4500-0.4500 0.5500     band energies (ev):

   -70.8256 -70.8256 -70.8255 -70.8182 -70.7862 -70.7817 -70.7817 -70.7816
   -36.9717 -36.9717 -36.9717 -36.9539 -36.9539 -36.9509 -36.9411 -36.9411
   -36.9411 -36.9218 -36.9217 -36.9217 -36.7708 -36.7708 -36.7708 -36.7498
   -36.7458 -36.7458 -36.7432 -36.7432 -36.7432 -36.7237 -36.7237 -36.7237
    11.9791  11.9791  11.9791  12.6261  13.7236  13.7236  13.7236  13.7875
    13.7875  13.7875  13.9743  13.9743  13.9771  14.1211  14.1211  14.2627
    14.2627  14.2627  14.2656  14.2656  14.2656  14.3625  14.3625  14.3625
    16.1381  16.1381  16.1381  16.2351  16.2351  16.2447  16.2447  16.2447
    16.4955  16.4955  16.4955  16.5414  16.5414  16.7579  16.7579  16.7579
    17.0364  17.0364  17.0364  17.6811  23.2281

          k = 0.4000-0.4000 0.6000     band energies (ev):

   -70.8264 -70.8264 -70.8264 -70.8131 -70.7894 -70.7815 -70.7815 -70.7814
   -36.9813 -36.9813 -36.9813 -36.9668 -36.9498 -36.9498 -36.9254 -36.9253
   -36.9253 -36.9152 -36.9152 -36.9152 -36.7771 -36.7771 -36.7771 -36.7570
   -36.7570 -36.7508 -36.7508 -36.7508 -36.7405 -36.7157 -36.7157 -36.7157
    11.8638  11.8638  11.8638  13.0835  13.6653  13.6653  13.6653  13.7009
    13.7009  13.7009  13.7846  14.0386  14.0386  14.0998  14.0998  14.3167
    14.3167  14.3167  14.3393  14.3393  14.3393  14.5349  14.5349  14.5349
    16.0540  16.0540  16.0540  16.2682  16.2682  16.2986  16.2986  16.2986
    16.3720  16.3720  16.3720  16.4849  16.4849  16.8672  16.8672  16.8672
    16.8880  16.8880  16.8880  18.2417  22.3142

          k = 0.3500-0.3500 0.6500     band energies (ev):

   -70.8265 -70.8265 -70.8264 -70.8086 -70.7920 -70.7821 -70.7821 -70.7820
   -36.9850 -36.9850 -36.9850 -36.9760 -36.9443 -36.9443 -36.9099 -36.9099
   -36.9099 -36.9090 -36.9090 -36.9090 -36.7838 -36.7838 -36.7838 -36.7691
   -36.7691 -36.7585 -36.7585 -36.7585 -36.7375 -36.7129 -36.7129 -36.7129
    11.8011  11.8011  11.8011  13.4835  13.6006  13.6006  13.6006  13.6476
    13.6476  13.6476  13.6530  13.9738  13.9738  14.1935  14.1935  14.3717
    14.3717  14.3717  14.4350  14.4350  14.4350  14.7100  14.7100  14.7100
    15.9491  15.9492  15.9492  16.2415  16.2415  16.2415  16.3002  16.3002
    16.3548  16.3548  16.3548  16.4432  16.4432  16.7552  16.7552  16.7552
    16.9265  16.9265  16.9265  18.8817  21.4090

          k = 0.3000-0.3000 0.7000     band energies (ev):

   -70.8256 -70.8256 -70.8256 -70.8049 -70.7940 -70.7835 -70.7835 -70.7835
   -36.9824 -36.9824 -36.9824 -36.9783 -36.9374 -36.9374 -36.9029 -36.9029
   -36.9029 -36.8949 -36.8949 -36.8949 -36.7910 -36.7910 -36.7910 -36.7821
   -36.7821 -36.7664 -36.7664 -36.7664 -36.7411 -36.7159 -36.7159 -36.7159
    11.7968  11.7968  11.7968  13.4972  13.4972  13.4972  13.5821  13.6688
    13.6688  13.6688  13.8075  13.9289  13.9289  14.2516  14.2516  14.4301
    14.4301  14.4301  14.5439  14.5439  14.5439  14.8754  14.8755  14.8755
    15.8249  15.8249  15.8249  16.1059  16.1059  16.1059  16.3295  16.3295
    16.3813  16.3813  16.3813  16.4164  16.4164  16.6716  16.6716  16.6716
    16.9299  16.9299  16.9300  19.6091  20.5518

          k = 0.2500-0.2500 0.7500     band energies (ev):

   -70.8239 -70.8239 -70.8239 -70.8019 -70.7954 -70.7857 -70.7857 -70.7857
   -36.9736 -36.9735 -36.9735 -36.9735 -36.9291 -36.9291 -36.8966 -36.8966
   -36.8966 -36.8805 -36.8804 -36.8804 -36.7986 -36.7985 -36.7985 -36.7959
   -36.7959 -36.7744 -36.7744 -36.7744 -36.7512 -36.7250 -36.7250 -36.7249
    11.8509  11.8509  11.8509  13.3923  13.3923  13.3923  13.5687  13.7264
    13.7264  13.7264  13.9050  13.9050  14.0440  14.2743  14.2743  14.4897
    14.4897  14.4897  14.6639  14.6639  14.6639  15.0258  15.0258  15.0258
    15.6857  15.6857  15.6857  15.9671  15.9672  15.9672  16.3289  16.3289
    16.3289  16.3550  16.3550  16.4028  16.4028  16.6883  16.6883  16.6883
    16.8760  16.8760  16.8760  19.7658  19.7658

          k = 0.2000-0.2000 0.8000     band energies (ev):

   -70.8214 -70.8214 -70.8214 -70.7997 -70.7963 -70.7887 -70.7887 -70.7887
   -36.9622 -36.9590 -36.9590 -36.9590 -36.9194 -36.9194 -36.8901 -36.8901
   -36.8901 -36.8667 -36.8667 -36.8667 -36.8103 -36.8103 -36.8063 -36.8063
   -36.8063 -36.7827 -36.7827 -36.7827 -36.7671 -36.7397 -36.7397 -36.7396
    11.9585  11.9585  11.9585  13.2828  13.2828  13.2828  13.6071  13.8168
    13.8168  13.8168  13.9019  13.9019  14.1901  14.2654  14.2654  14.5444
    14.5444  14.5444  14.7953  14.7953  14.7954  15.1573  15.1573  15.1573
    15.5414  15.5414  15.5414  15.8281  15.8281  15.8281  16.2309  16.2309
    16.2309  16.3760  16.3760  16.3990  16.3990  16.7653  16.7653  16.7653
    16.7751  16.7751  16.7751  19.0713  19.0713

          k = 0.1500-0.1500 0.8500     band energies (ev):

   -70.8181 -70.8181 -70.8181 -70.7982 -70.7967 -70.7923 -70.7923 -70.7923
   -36.9450 -36.9397 -36.9397 -36.9397 -36.9084 -36.9084 -36.8837 -36.8837
   -36.8837 -36.8538 -36.8538 -36.8538 -36.8250 -36.8250 -36.8138 -36.8138
   -36.8138 -36.7913 -36.7913 -36.7913 -36.7882 -36.7590 -36.7590 -36.7590
    12.1105  12.1105  12.1105  13.1631  13.1631  13.1631  13.6885  13.9183
    13.9183  13.9353  13.9353  13.9353  14.2318  14.2318  14.2508  14.5806
    14.5806  14.5806  14.9391  14.9391  14.9391  15.2666  15.2666  15.2666
    15.4106  15.4107  15.4107  15.6919  15.6919  15.6919  16.1326  16.1326
    16.1326  16.3919  16.3919  16.4012  16.4012  16.6015  16.6015  16.6015
    16.8928  16.8928  16.8928  18.4866  18.4866

          k = 0.1000-0.1000 0.9000     band energies (ev):

   -70.8143 -70.8143 -70.8143 -70.7973 -70.7968 -70.7965 -70.7965 -70.7964
   -36.9228 -36.9174 -36.9174 -36.9174 -36.8962 -36.8962 -36.8780 -36.8780
   -36.8780 -36.8417 -36.8417 -36.8417 -36.8399 -36.8399 -36.8204 -36.8204
   -36.8204 -36.8132 -36.8002 -36.8002 -36.8002 -36.7814 -36.7814 -36.7814
    12.2935  12.2935  12.2935  13.0265  13.0265  13.0265  13.8010  13.9523
    13.9523  14.0753  14.0753  14.0753  14.1809  14.1809  14.2381  14.5738
    14.5738  14.5738  15.0932  15.0932  15.0932  15.3233  15.3233  15.3233
    15.3478  15.3478  15.3478  15.5629  15.5629  15.5629  16.0540  16.0540
    16.0540  16.3987  16.3987  16.3987  16.4028  16.4028  16.4056  16.4056
    17.0332  17.0332  17.0332  18.0223  18.0223

          k = 0.0500-0.0500 0.9500     band energies (ev):

   -70.8100 -70.8100 -70.8100 -70.8009 -70.8009 -70.8009 -70.7969 -70.7968
   -36.8971 -36.8952 -36.8952 -36.8952 -36.8831 -36.8831 -36.8749 -36.8749
   -36.8749 -36.8547 -36.8547 -36.8407 -36.8303 -36.8303 -36.8303 -36.8240
   -36.8240 -36.8240 -36.8097 -36.8097 -36.8097 -36.8037 -36.8037 -36.8036
    12.4913  12.4913  12.4914  12.8680  12.8680  12.8680  13.9298  14.0004
    14.0004  14.1207  14.1207  14.1677  14.2275  14.2275  14.2275  14.5028
    14.5028  14.5028  15.2445  15.2445  15.2445  15.3064  15.3064  15.3064
    15.3868  15.3868  15.3868  15.4473  15.4473  15.4473  16.0158  16.0158
    16.0158  16.1953  16.1953  16.1953  16.4090  16.4090  16.4094  16.4094
    17.2002  17.2002  17.2002  17.6704  17.6704

          k = 0.0000 0.0000 1.0000     band energies (ev):

   -70.8055 -70.8055 -70.8055 -70.8054 -70.8054 -70.8054 -70.7968 -70.7967
   -36.8794 -36.8794 -36.8794 -36.8793 -36.8793 -36.8793 -36.8692 -36.8692
   -36.8692 -36.8691 -36.8691 -36.8691 -36.8197 -36.8197 -36.8197 -36.8197
   -36.8197 -36.8197 -36.8196 -36.8196 -36.8196 -36.8196 -36.8196 -36.8196
    12.6873  12.6873  12.6873  12.6873  12.6873  12.6873  14.0583  14.0583
    14.0583  14.0584  14.0584  14.0584  14.3777  14.3777  14.3777  14.3778
    14.3778  14.3778  15.3556  15.3556  15.3556  15.3556  15.3556  15.3556
    15.3557  15.3557  15.3557  15.3557  15.3557  15.3557  16.0544  16.0544
    16.0544  16.0544  16.0544  16.0544  16.4109  16.4109  16.4110  16.4110
    17.4057  17.4057  17.4057  17.4057  17.4057

          k = 0.0500 0.9500 0.0000     band energies (ev):

   -70.8101 -70.8100 -70.8055 -70.8054 -70.8009 -70.8009 -70.7969 -70.7968
   -36.8924 -36.8924 -36.8891 -36.8891 -36.8855 -36.8854 -36.8720 -36.8720
   -36.8689 -36.8688 -36.8490 -36.8490 -36.8299 -36.8299 -36.8270 -36.8270
   -36.8200 -36.8199 -36.8138 -36.8137 -36.8094 -36.8094 -36.8065 -36.8065
    12.4863  12.4863  12.6961  12.6962  12.8639  12.8639  13.9719  13.9719
    14.0557  14.0557  14.1441  14.1441  14.2317  14.2317  14.3657  14.3657
    14.5115  14.5115  15.2591  15.2591  15.3009  15.3009  15.3123  15.3123
    15.3723  15.3724  15.4070  15.4070  15.4430  15.4430  15.9908  15.9908
    16.1054  16.1055  16.1711  16.1711  16.4093  16.4094  16.4102  16.4102
    17.1981  17.1981  17.4129  17.4130  17.6648

          k = 0.1000 0.9000 0.0000     band energies (ev):

   -70.8145 -70.8145 -70.8053 -70.8052 -70.7970 -70.7969 -70.7965 -70.7964
   -36.9095 -36.9095 -36.9083 -36.9083 -36.8992 -36.8991 -36.8692 -36.8692
   -36.8680 -36.8679 -36.8399 -36.8399 -36.8298 -36.8298 -36.8290 -36.8290
   -36.8209 -36.8208 -36.8007 -36.8007 -36.7994 -36.7993 -36.7892 -36.7892
    12.2700  12.2700  12.7222  12.7222  13.0103  13.0103  13.8865  13.8865
    14.0479  14.0480  14.0864  14.0864  14.2268  14.2268  14.3326  14.3326
    14.6179  14.6179  15.1292  15.1292  15.2108  15.2109  15.2965  15.2965
    15.4192  15.4193  15.4204  15.4204  15.5433  15.5433  15.9713  15.9713
    16.2264  16.2265  16.3297  16.3297  16.4043  16.4044  16.4083  16.4084
    17.0280  17.0280  17.4380  17.4381  17.9893

          k = 0.1500 0.8500 0.0000     band energies (ev):

   -70.8187 -70.8187 -70.8050 -70.8049 -70.7973 -70.7972 -70.7922 -70.7922
   -36.9280 -36.9280 -36.9262 -36.9262 -36.9152 -36.9152 -36.8689 -36.8689
   -36.8665 -36.8664 -36.8494 -36.8494 -36.8302 -36.8301 -36.8224 -36.8223
   -36.8098 -36.8098 -36.7898 -36.7898 -36.7857 -36.7857 -36.7705 -36.7704
    12.0497  12.0497  12.7643  12.7643  13.1238  13.1238  13.8035  13.8035
    13.9524  13.9524  14.0363  14.0363  14.2853  14.2854  14.3041  14.3041
    14.6881  14.6881  14.9864  14.9864  15.0912  15.0912  15.3491  15.3491
    15.4115  15.4115  15.4892  15.4892  15.6400  15.6400  15.9779  15.9779
    16.3682  16.3682  16.3951  16.3952  16.4066  16.4067  16.5103  16.5103
    16.8838  16.8838  17.4915  17.4916  18.3889

          k = 0.2000 0.8000 0.0000     band energies (ev):

   -70.8226 -70.8226 -70.8047 -70.8046 -70.7976 -70.7975 -70.7883 -70.7883
   -36.9461 -36.9461 -36.9425 -36.9425 -36.9313 -36.9313 -36.8697 -36.8696
   -36.8645 -36.8644 -36.8581 -36.8581 -36.8294 -36.8294 -36.8244 -36.8243
   -36.7917 -36.7917 -36.7810 -36.7810 -36.7711 -36.7710 -36.7520 -36.7520
    11.8367  11.8367  12.8204  12.8204  13.2027  13.2027  13.7235  13.7235
    13.8394  13.8394  14.0222  14.0222  14.2312  14.2313  14.3733  14.3733
    14.7292  14.7292  14.8462  14.8463  14.9740  14.9740  15.3922  15.3922
    15.4454  15.4454  15.5743  15.5743  15.7226  15.7226  15.9970  15.9970
    16.3803  16.3804  16.4069  16.4069  16.4945  16.4945  16.6961  16.6961
    16.7576  16.7576  17.5903  17.5904  18.8663

          k = 0.2500 0.7500 0.0000     band energies (ev):

   -70.8261 -70.8261 -70.8042 -70.8041 -70.7981 -70.7980 -70.7848 -70.7848
   -36.9627 -36.9627 -36.9568 -36.9568 -36.9464 -36.9464 -36.8709 -36.8709
   -36.8659 -36.8659 -36.8620 -36.8619 -36.8282 -36.8282 -36.8269 -36.8268
   -36.7752 -36.7752 -36.7732 -36.7731 -36.7578 -36.7578 -36.7350 -36.7350
    11.6412  11.6412  12.8879  12.8880  13.2452  13.2452  13.6467  13.6467
    13.7567  13.7567  14.0074  14.0075  14.1763  14.1763  14.4323  14.4323
    14.7182  14.7182  14.7557  14.7557  14.8686  14.8686  15.3694  15.3694
    15.5631  15.5631  15.6677  15.6678  15.7868  15.7868  16.0206  16.0206
    16.3588  16.3588  16.4115  16.4115  16.5822  16.5823  16.6441  16.6441
    16.8745  16.8745  17.7504  17.7504  19.4161

          k = 0.3000 0.7000 0.0000     band energies (ev):

   -70.8291 -70.8291 -70.8037 -70.8036 -70.7986 -70.7985 -70.7818 -70.7818
   -36.9771 -36.9771 -36.9687 -36.9687 -36.9597 -36.9597 -36.8725 -36.8725
   -36.8721 -36.8721 -36.8590 -36.8589 -36.8299 -36.8298 -36.8269 -36.8269
   -36.7664 -36.7664 -36.7608 -36.7608 -36.7467 -36.7467 -36.7202 -36.7202
    11.4713  11.4713  12.9636  12.9636  13.2521  13.2521  13.5729  13.5729
    13.7100  13.7100  13.9942  13.9942  14.1246  14.1247  14.4796  14.4796
    14.6079  14.6079  14.7769  14.7769  14.7790  14.7790  15.3471  15.3471
    15.6848  15.6848  15.7643  15.7643  15.8331  15.8331  16.0441  16.0441
    16.3292  16.3292  16.4226  16.4227  16.5408  16.5408  16.6251  16.6251
    17.0355  17.0355  17.9760  17.9760  20.0268

          k = 0.3500 0.6500 0.0000     band energies (ev):

   -70.8315 -70.8315 -70.8031 -70.8030 -70.7992 -70.7991 -70.7794 -70.7794
   -36.9888 -36.9888 -36.9780 -36.9780 -36.9708 -36.9708 -36.8779 -36.8779
   -36.8733 -36.8733 -36.8557 -36.8556 -36.8332 -36.8331 -36.8258 -36.8258
   -36.7610 -36.7610 -36.7488 -36.7488 -36.7380 -36.7380 -36.7081 -36.7081
    11.3334  11.3334  13.0440  13.0440  13.2341  13.2341  13.5011  13.5012
    13.6931  13.6931  13.9845  13.9845  14.0792  14.0792  14.5156  14.5156
    14.5192  14.5192  14.7070  14.7070  14.7957  14.7957  15.3279  15.3279
    15.7999  15.7999  15.8600  15.8600  15.8643  15.8643  16.0646  16.0646
    16.2905  16.2905  16.4419  16.4419  16.4465  16.4465  16.6315  16.6315
    17.1706  17.1706  18.2600  18.2600  20.6793

          k = 0.4000 0.6000 0.0000     band energies (ev):

   -70.8332 -70.8332 -70.8025 -70.8024 -70.7998 -70.7997 -70.7777 -70.7777
   -36.9974 -36.9974 -36.9843 -36.9843 -36.9794 -36.9794 -36.8818 -36.8818
   -36.8742 -36.8742 -36.8521 -36.8520 -36.8368 -36.8367 -36.8249 -36.8249
   -36.7571 -36.7570 -36.7395 -36.7394 -36.7322 -36.7322 -36.6992 -36.6992
    11.2319  11.2319  13.1257  13.1257  13.2082  13.2082  13.4301  13.4301
    13.6922  13.6922  13.9801  13.9802  14.0416  14.0416  14.4544  14.4544
    14.5421  14.5422  14.6523  14.6524  14.8113  14.8114  15.3132  15.3132
    15.8836  15.8836  15.9015  15.9015  15.9518  15.9518  16.0804  16.0805
    16.2420  16.2420  16.3621  16.3621  16.4694  16.4695  16.6133  16.6134
    17.2727  17.2727  18.5930  18.5930  20.3288

          k = 0.4500 0.5500 0.0000     band energies (ev):

   -70.8343 -70.8343 -70.8018 -70.8017 -70.8005 -70.8004 -70.7766 -70.7766
   -37.0026 -37.0026 -36.9877 -36.9877 -36.9852 -36.9852 -36.8842 -36.8842
   -36.8748 -36.8747 -36.8483 -36.8482 -36.8406 -36.8405 -36.8243 -36.8243
   -36.7546 -36.7546 -36.7330 -36.7330 -36.7294 -36.7293 -36.6938 -36.6938
    11.1698  11.1698  13.1880  13.1880  13.2062  13.2062  13.3582  13.3582
    13.6956  13.6956  13.9827  13.9827  14.0129  14.0129  14.4149  14.4149
    14.5634  14.5635  14.6129  14.6130  14.8219  14.8219  15.3040  15.3040
    15.8940  15.8940  15.9810  15.9810  16.0374  16.0374  16.0903  16.0904
    16.1834  16.1835  16.2936  16.2936  16.5040  16.5041  16.5811  16.5812
    17.3363  17.3363  18.9684  18.9685  19.8369

          k = 0.5000 0.5000 0.0000     band energies (ev):

   -70.8346 -70.8346 -70.8012 -70.8011 -70.8010 -70.8010 -70.7762 -70.7762
   -37.0044 -37.0044 -36.9880 -36.9880 -36.9880 -36.9880 -36.8850 -36.8850
[...]
   -33.8920 -33.8920 -33.8678 -33.8678 -33.8637 -33.8637 -33.8465 -33.8465
    12.3898  12.3898  13.3636  13.3636  14.0642  14.0642  15.4375  15.4375
    15.6345  15.6346  15.7619  15.7619  16.0664  16.0664  16.4275  16.4276
    16.8898  16.8899  17.0940  17.0940  17.1695  17.1696  17.5430  17.5431
    17.6330  17.6330  17.7396  17.7396  17.8239  17.8239  18.3087  18.3087
    18.7700  18.7700  18.9214  18.9214  19.2731  19.2731  19.3015  19.3016
    19.5973  19.5973  19.8911  19.8912  20.3794

          k = 0.9000 0.1000 0.0000     band energies (ev):

   -67.7978 -67.7978 -67.7876 -67.7875 -67.7781 -67.7780 -67.7778 -67.7778
   -34.0056 -34.0056 -34.0039 -34.0039 -33.9940 -33.9939 -33.9604 -33.9604
   -33.9582 -33.9581 -33.9242 -33.9241 -33.9139 -33.9139 -33.9132 -33.9132
   -33.9028 -33.9028 -33.8805 -33.8805 -33.8786 -33.8785 -33.8675 -33.8675
    12.6604  12.6604  13.2944  13.2944  13.8061  13.8061  15.5161  15.5162
    15.6328  15.6329  15.7194  15.7195  16.2538  16.2538  16.5312  16.5312
    16.8821  16.8822  17.2437  17.2437  17.3161  17.3162  17.4872  17.4872
    17.5509  17.5509  17.6097  17.6098  17.7000  17.7000  18.3059  18.3059
    18.5977  18.5978  18.7179  18.7179  19.2975  19.2976  19.3094  19.3095
    19.6756  19.6756  19.8714  19.8715  20.1544

          k = 0.9500 0.0500 0.0000     band energies (ev):

   -67.7929 -67.7928 -67.7878 -67.7877 -67.7827 -67.7827 -67.7779 -67.7778
   -33.9866 -33.9866 -33.9821 -33.9821 -33.9788 -33.9787 -33.9637 -33.9637
   -33.9592 -33.9591 -33.9366 -33.9366 -33.9129 -33.9129 -33.9098 -33.9098
   -33.9018 -33.9017 -33.8950 -33.8949 -33.8898 -33.8898 -33.8867 -33.8867
    12.9460  12.9460  13.2523  13.2523  13.5279  13.5279  15.5799  15.5799
    15.6324  15.6324  15.6774  15.6775  16.4500  16.4500  16.6102  16.6103
    16.7991  16.7991  17.3782  17.3782  17.4317  17.4318  17.4346  17.4346
    17.5147  17.5147  17.5340  17.5340  17.5776  17.5776  18.3341  18.3341
    18.4634  18.4635  18.5412  18.5412  19.3120  19.3120  19.3148  19.3149
    19.7610  19.7610  19.8633  19.8634  19.9873

          k = 0.0250 0.0250 0.9750     band energies (ev):

   -67.7903 -67.7903 -67.7903 -67.7852 -67.7852 -67.7852 -67.7778 -67.7777
   -33.9795 -33.9795 -33.9795 -33.9756 -33.9680 -33.9680 -33.9680 -33.9675
   -33.9675 -33.9514 -33.9514 -33.9433 -33.9073 -33.9073 -33.9073 -33.9054
   -33.9054 -33.9054 -33.8957 -33.8957 -33.8957 -33.8939 -33.8939 -33.8939
    13.0937  13.0937  13.0937  13.3857  13.3857  13.3857  15.5937  15.6166
    15.6166  15.6504  15.6504  15.6606  16.5441  16.5442  16.5442  16.7220
    16.7220  16.7220  17.4286  17.4286  17.4286  17.4515  17.4515  17.4515
    17.5062  17.5062  17.5063  17.5268  17.5268  17.5268  18.3721  18.3721
    18.3721  18.4758  18.4758  18.4758  19.3154  19.3154  19.3155  19.3155
    19.8087  19.8087  19.8087  19.9206  19.9206

          k = 0.0500 0.0500 0.9500     band energies (ev):

   -67.7928 -67.7928 -67.7928 -67.7827 -67.7827 -67.7827 -67.7779 -67.7778
   -33.9912 -33.9897 -33.9897 -33.9897 -33.9753 -33.9753 -33.9669 -33.9669
   -33.9669 -33.9431 -33.9431 -33.9271 -33.9134 -33.9134 -33.9134 -33.9064
   -33.9064 -33.9064 -33.8902 -33.8902 -33.8902 -33.8836 -33.8836 -33.8836
    12.9536  12.9536  12.9536  13.5346  13.5346  13.5346  15.5480  15.6039
    15.6039  15.6705  15.6705  15.6753  16.4392  16.4392  16.4392  16.7770
    16.7771  16.7771  17.3601  17.3601  17.3601  17.4552  17.4552  17.4552
    17.5121  17.5121  17.5121  17.5893  17.5893  17.5893  18.3604  18.3604
    18.3604  18.5669  18.5669  18.5669  19.3115  19.3115  19.3119  19.3119
    19.7611  19.7611  19.7611  19.9899  19.9899

          k = 0.0750 0.0750 0.9250     band energies (ev):

   -67.7952 -67.7952 -67.7952 -67.7802 -67.7802 -67.7802 -67.7781 -67.7779
   -34.0062 -34.0017 -34.0017 -34.0017 -33.9829 -33.9829 -33.9679 -33.9679
   -33.9679 -33.9347 -33.9347 -33.9197 -33.9197 -33.9197 -33.9113 -33.9052
   -33.9052 -33.9052 -33.8848 -33.8848 -33.8848 -33.8715 -33.8715 -33.8715
    12.8196  12.8196  12.8196  13.6834  13.6834  13.6834  15.4984  15.5947
    15.5947  15.6733  15.6918  15.6918  16.3316  16.3316  16.3316  16.7999
    16.7999  16.7999  17.2787  17.2787  17.2788  17.4949  17.4949  17.4949
    17.4990  17.4990  17.4990  17.6610  17.6610  17.6610  18.3701  18.3701
    18.3701  18.6770  18.6770  18.6770  19.3048  19.3048  19.3061  19.3061
    19.7164  19.7164  19.7164  20.0728  20.0728

          k = 0.1000 0.1000 0.9000     band energies (ev):

   -67.7976 -67.7976 -67.7975 -67.7784 -67.7779 -67.7778 -67.7778 -67.7777
   -34.0204 -34.0144 -34.0144 -34.0144 -33.9902 -33.9902 -33.9701 -33.9701
   -33.9701 -33.9262 -33.9262 -33.9262 -33.9262 -33.9262 -33.9026 -33.9026
   -33.9026 -33.8959 -33.8796 -33.8796 -33.8796 -33.8588 -33.8588 -33.8587
    12.6930  12.6930  12.6930  13.8311  13.8311  13.8311  15.4482  15.5894
    15.5894  15.6518  15.7137  15.7137  16.2248  16.2248  16.2248  16.7933
    16.7933  16.7933  17.1901  17.1901  17.1901  17.4704  17.4704  17.4704
    17.5672  17.5672  17.5672  17.7390  17.7390  17.7390  18.3961  18.3961
    18.3961  18.7976  18.7976  18.7976  19.2955  19.2955  19.2982  19.2982
    19.6736  19.6736  19.6736  20.1741  20.1741

          k = 0.1250 0.1250 0.8750     band energies (ev):

   -67.7998 -67.7998 -67.7997 -67.7788 -67.7778 -67.7754 -67.7754 -67.7754
   -34.0336 -34.0271 -34.0271 -34.0271 -33.9972 -33.9972 -33.9730 -33.9730
   -33.9730 -33.9330 -33.9330 -33.9330 -33.9178 -33.9178 -33.8992 -33.8992
   -33.8992 -33.8812 -33.8745 -33.8745 -33.8745 -33.8460 -33.8460 -33.8459
    12.5755  12.5755  12.5755  13.9763  13.9763  13.9763  15.3994  15.5884
    15.5884  15.6080  15.7357  15.7357  16.1212  16.1212  16.1212  16.7663
    16.7663  16.7663  17.0987  17.0987  17.0987  17.4294  17.4294  17.4294
    17.6620  17.6620  17.6620  17.8214  17.8214  17.8214  18.4342  18.4342
    18.4342  18.9202  18.9202  18.9202  19.2830  19.2830  19.2884  19.2884
    19.6315  19.6315  19.6315  20.2987  20.2987

          k = 0.1500 0.1500 0.8500     band energies (ev):

   -67.8018 -67.8018 -67.8018 -67.7794 -67.7777 -67.7732 -67.7732 -67.7732
   -34.0455 -34.0393 -34.0393 -34.0393 -34.0039 -34.0039 -33.9764 -33.9764
   -33.9764 -33.9400 -33.9400 -33.9400 -33.9093 -33.9093 -33.8953 -33.8953
   -33.8953 -33.8696 -33.8696 -33.8696 -33.8674 -33.8337 -33.8337 -33.8337
    12.4682  12.4682  12.4682  14.1185  14.1185  14.1185  15.3550  15.5398
    15.5920  15.5920  15.7568  15.7568  16.0225  16.0225  16.0225  16.7276
    16.7276  16.7276  17.0075  17.0075  17.0076  17.3781  17.3781  17.3781
    17.7698  17.7698  17.7698  17.9069  17.9069  17.9069  18.4814  18.4814
    18.4814  19.0371  19.0371  19.0371  19.2678  19.2678  19.2767  19.2767
    19.5896  19.5896  19.5896  20.4523  20.4523

          k = 0.1750 0.1750 0.8250     band energies (ev):

   -67.8037 -67.8037 -67.8037 -67.7802 -67.7776 -67.7711 -67.7711 -67.7711
   -34.0560 -34.0507 -34.0507 -34.0507 -34.0103 -34.0103 -33.9799 -33.9799
   -33.9799 -33.9472 -33.9472 -33.9472 -33.9009 -33.9009 -33.8911 -33.8911
   -33.8911 -33.8648 -33.8648 -33.8648 -33.8548 -33.8222 -33.8222 -33.8222
    12.3724  12.3724  12.3724  14.2568  14.2568  14.2568  15.3174  15.4462
    15.6007  15.6007  15.7765  15.7765  15.9299  15.9300  15.9300  16.6829
    16.6830  16.6830  16.9186  16.9186  16.9186  17.3176  17.3176  17.3176
    17.8840  17.8840  17.8840  17.9944  17.9945  17.9945  18.5355  18.5355
    18.5355  19.1419  19.1419  19.1419  19.2498  19.2498  19.2633  19.2633
    19.5474  19.5474  19.5474  20.6385  20.6385

          k = 0.2000 0.2000 0.8000     band energies (ev):

   -67.8054 -67.8054 -67.8054 -67.7811 -67.7773 -67.7692 -67.7692 -67.7691
   -34.0650 -34.0609 -34.0609 -34.0609 -34.0163 -34.0163 -33.9836 -33.9836
   -33.9836 -33.9547 -33.9547 -33.9547 -33.8925 -33.8925 -33.8868 -33.8868
   -33.8868 -33.8600 -33.8600 -33.8600 -33.8435 -33.8119 -33.8119 -33.8119
    12.2892  12.2892  12.2892  14.3910  14.3910  14.3910  15.2885  15.3263
    15.6143  15.6143  15.7937  15.7937  15.8445  15.8445  15.8445  16.6359
    16.6359  16.6359  16.8330  16.8330  16.8330  17.2489  17.2489  17.2489
    18.0001  18.0001  18.0001  18.0834  18.0834  18.0834  18.5950  18.5950
    18.5950  19.2295  19.2295  19.2307  19.2307  19.2308  19.2481  19.2481
    19.5046  19.5046  19.5046  20.8590  20.8590

          k = 0.2250 0.2250 0.7750     band energies (ev):

   -67.8069 -67.8069 -67.8069 -67.7822 -67.7769 -67.7674 -67.7674 -67.7674
   -34.0724 -34.0698 -34.0698 -34.0698 -34.0219 -34.0219 -33.9872 -33.9872
   -33.9872 -33.9624 -33.9624 -33.9624 -33.8843 -33.8843 -33.8824 -33.8824
   -33.8824 -33.8554 -33.8554 -33.8554 -33.8335 -33.8029 -33.8029 -33.8029
    12.2193  12.2193  12.2193  14.5209  14.5209  14.5209  15.1802  15.2702
    15.6333  15.6333  15.7669  15.7669  15.7669  15.8080  15.8080  16.5884
    16.5884  16.5884  16.7516  16.7516  16.7516  17.1724  17.1724  17.1724
    18.1153  18.1153  18.1153  18.1731  18.1731  18.1731  18.6585  18.6586
    18.6586  19.2073  19.2073  19.2315  19.2315  19.3023  19.3023  19.3023
    19.4611  19.4612  19.4612  21.1133  21.1133

          k = 0.2500 0.2500 0.7500     band energies (ev):

   -67.8082 -67.8082 -67.8082 -67.7836 -67.7763 -67.7659 -67.7659 -67.7658
   -34.0779 -34.0772 -34.0772 -34.0772 -34.0272 -34.0272 -33.9908 -33.9908
   -33.9908 -33.9703 -33.9703 -33.9703 -33.8780 -33.8780 -33.8780 -33.8762
   -33.8762 -33.8508 -33.8508 -33.8508 -33.8252 -33.7954 -33.7954 -33.7954
    12.1637  12.1637  12.1637  14.6464  14.6464  14.6464  15.0087  15.2641
    15.6578  15.6578  15.6978  15.6978  15.6978  15.8183  15.8183  16.5417
    16.5417  16.5417  16.6748  16.6748  16.6748  17.0885  17.0885  17.0885
    18.2275  18.2275  18.2275  18.2630  18.2630  18.2630  18.7254  18.7254
    18.7254  19.1839  19.1839  19.2134  19.2134  19.3564  19.3564  19.3564
    19.4170  19.4170  19.4170  21.3991  21.3991

          k = 0.2750 0.2750 0.7250     band energies (ev):

   -67.8093 -67.8093 -67.8092 -67.7851 -67.7756 -67.7645 -67.7645 -67.7645
   -34.0830 -34.0830 -34.0830 -34.0815 -34.0320 -34.0320 -33.9944 -33.9944
   -33.9944 -33.9784 -33.9784 -33.9784 -33.8737 -33.8737 -33.8737 -33.8682
   -33.8682 -33.8463 -33.8463 -33.8463 -33.8185 -33.7895 -33.7895 -33.7895
    12.1229  12.1229  12.1229  14.7676  14.7676  14.7676  14.8135  15.2714
    15.6379  15.6379  15.6379  15.6877  15.6877  15.8238  15.8238  16.4965
    16.4965  16.4965  16.6028  16.6028  16.6028  16.9978  16.9978  16.9978
    18.3351  18.3351  18.3351  18.3527  18.3527  18.3527  18.7947  18.7947
    18.7947  19.1600  19.1600  19.1941  19.1941  19.3724  19.3724  19.3724
    19.3939  19.3939  19.3940  21.7134  21.7134

          k = 0.3000 0.3000 0.7000     band energies (ev):

   -67.8101 -67.8101 -67.8101 -67.7869 -67.7748 -67.7634 -67.7634 -67.7633
   -34.0871 -34.0871 -34.0871 -34.0832 -34.0365 -34.0365 -33.9979 -33.9979
   -33.9979 -33.9868 -33.9868 -33.9868 -33.8694 -33.8694 -33.8694 -33.8605
   -33.8605 -33.8418 -33.8418 -33.8418 -33.8137 -33.7852 -33.7852 -33.7852
    12.0972  12.0972  12.0972  14.5967  14.8846  14.8846  14.8846  15.2935
    15.5876  15.5876  15.5876  15.7233  15.7233  15.8236  15.8236  16.4531
    16.4531  16.4531  16.5357  16.5357  16.5357  16.9006  16.9006  16.9006
    18.4371  18.4371  18.4371  18.4416  18.4416  18.4416  18.8658  18.8658
    18.8658  19.1366  19.1366  19.1737  19.1737  19.3278  19.3278  19.3278
    19.4153  19.4153  19.4153  21.5160  22.0529

          k = 0.3250 0.3250 0.6750     band energies (ev):

   -67.8107 -67.8107 -67.8107 -67.7889 -67.7738 -67.7624 -67.7624 -67.7624
   -34.0894 -34.0894 -34.0894 -34.0829 -34.0405 -34.0405 -34.0014 -34.0014
   -34.0014 -33.9953 -33.9953 -33.9953 -33.8653 -33.8653 -33.8653 -33.8529
   -33.8529 -33.8374 -33.8374 -33.8374 -33.8106 -33.7827 -33.7827 -33.7827
    12.0870  12.0870  12.0870  14.3611  14.9975  14.9975  14.9975  15.3310
    15.5472  15.5472  15.5472  15.7642  15.7642  15.8171  15.8171  16.4119
    16.4119  16.4119  16.4736  16.4736  16.4736  16.7975  16.7975  16.7975
    18.5295  18.5295  18.5295  18.5327  18.5327  18.5327  18.9378  18.9378
    18.9378  19.1148  19.1148  19.1524  19.1524  19.2838  19.2838  19.2838
    19.4212  19.4212  19.4212  21.2164  22.4146

          k = 0.3500 0.3500 0.6500     band energies (ev):

   -67.8110 -67.8110 -67.8110 -67.7911 -67.7726 -67.7618 -67.7618 -67.7617
   -34.0899 -34.0899 -34.0899 -34.0807 -34.0442 -34.0442 -34.0048 -34.0048
   -34.0048 -34.0039 -34.0039 -34.0039 -33.8613 -33.8613 -33.8613 -33.8456
   -33.8456 -33.8331 -33.8330 -33.8330 -33.8094 -33.7818 -33.7818 -33.7818
    12.0925  12.0925  12.0925  14.1095  15.1061  15.1061  15.1061  15.3847
    15.5170  15.5170  15.5170  15.8037  15.8037  15.8105  15.8105  16.3730
    16.3730  16.3730  16.4164  16.4164  16.4164  16.6892  16.6893  16.6893
    18.6158  18.6158  18.6158  18.6212  18.6212  18.6212  19.0093  19.0093
    19.0093  19.0955  19.0955  19.1304  19.1304  19.2418  19.2418  19.2418
    19.4120  19.4120  19.4120  20.9321  22.7955

          k = 0.3750 0.3750 0.6250     band energies (ev):

   -67.8111 -67.8111 -67.8111 -67.7935 -67.7712 -67.7613 -67.7613 -67.7613
   -34.0887 -34.0887 -34.0887 -34.0764 -34.0474 -34.0474 -34.0127 -34.0127
   -34.0127 -34.0082 -34.0082 -34.0082 -33.8574 -33.8574 -33.8574 -33.8386
   -33.8386 -33.8287 -33.8287 -33.8287 -33.8101 -33.7826 -33.7826 -33.7826
    12.1133  12.1133  12.1133  13.8450  15.2101  15.2101  15.2101  15.4551
    15.4974  15.4974  15.4974  15.7827  15.7827  15.8618  15.8618  16.3362
    16.3362  16.3362  16.3641  16.3641  16.3641  16.5769  16.5769  16.5769
    18.7004  18.7004  18.7004  18.7023  18.7023  18.7023  19.0761  19.0761
    19.0761  19.0800  19.0800  19.1078  19.1078  19.2062  19.2062  19.2062
    19.3881  19.3881  19.3882  20.6615  23.1922

          k = 0.4000 0.4000 0.6000     band energies (ev):

   -67.8110 -67.8110 -67.8109 -67.7961 -67.7698 -67.7611 -67.7611 -67.7610
   -34.0857 -34.0857 -34.0857 -34.0702 -34.0502 -34.0502 -34.0216 -34.0216
   -34.0216 -34.0117 -34.0117 -34.0117 -33.8536 -33.8536 -33.8536 -33.8318
   -33.8318 -33.8244 -33.8244 -33.8244 -33.8126 -33.7851 -33.7851 -33.7850
    12.1493  12.1493  12.1493  13.5707  15.3083  15.3083  15.3083  15.4885
    15.4885  15.4885  15.5425  15.7539  15.7539  15.9180  15.9180  16.3016
    16.3016  16.3016  16.3168  16.3168  16.3168  16.4618  16.4618  16.4618
    18.7760  18.7760  18.7760  18.7828  18.7828  18.7828  19.0690  19.0690
    19.0851  19.0851  19.1126  19.1126  19.1126  19.2027  19.2027  19.2027
    19.3502  19.3502  19.3502  20.4031  23.6012

          k = 0.4250 0.4250 0.5750     band energies (ev):

   -67.8106 -67.8106 -67.8106 -67.7989 -67.7681 -67.7611 -67.7611 -67.7610
   -34.0810 -34.0810 -34.0810 -34.0621 -34.0526 -34.0526 -34.0306 -34.0306
   -34.0306 -34.0153 -34.0153 -34.0153 -33.8500 -33.8500 -33.8500 -33.8253
   -33.8253 -33.8202 -33.8202 -33.8202 -33.8169 -33.7889 -33.7889 -33.7889
    12.2000  12.2000  12.2000  13.2896  15.3988  15.3988  15.3988  15.4904
    15.4905  15.4905  15.6469  15.7173  15.7173  15.9786  15.9786  16.2690
    16.2690  16.2690  16.2747  16.2747  16.2747  16.3464  16.3464  16.3464
    18.8421  18.8421  18.8421  18.8628  18.8628  18.8628  19.0624  19.0624
    19.0637  19.0637  19.0936  19.0936  19.0936  19.2565  19.2565  19.2565
    19.2991  19.2991  19.2991  20.1556  24.0173

          k = 0.4500 0.4500 0.5500     band energies (ev):

   -67.8100 -67.8100 -67.8100 -67.8018 -67.7663 -67.7613 -67.7613 -67.7613
   -34.0747 -34.0747 -34.0746 -34.0547 -34.0547 -34.0522 -34.0397 -34.0396
   -34.0396 -34.0191 -34.0191 -34.0191 -33.8465 -33.8465 -33.8465 -33.8230
   -33.8192 -33.8192 -33.8160 -33.8160 -33.8160 -33.7941 -33.7941 -33.7941
    12.2646  12.2646  12.2646  13.0043  15.4779  15.4779  15.4779  15.5034
    15.5034  15.5034  15.6727  15.6727  15.7684  16.0431  16.0431  16.2346
    16.2347  16.2347  16.2379  16.2379  16.2379  16.2383  16.2383  16.2383
    18.9008  18.9008  18.9008  18.9401  18.9401  18.9401  19.0401  19.0401
    19.0609  19.0609  19.0609  19.0645  19.0645  19.2365  19.2365  19.2366
    19.3261  19.3261  19.3261  19.9181  24.4333

          k = 0.4750 0.4750 0.5250     band energies (ev):

   -67.8092 -67.8092 -67.8092 -67.8049 -67.7644 -67.7617 -67.7617 -67.7617
   -34.0668 -34.0668 -34.0668 -34.0563 -34.0563 -34.0487 -34.0487 -34.0487
   -34.0406 -34.0232 -34.0232 -34.0232 -33.8431 -33.8431 -33.8431 -33.8306
   -33.8133 -33.8133 -33.8118 -33.8118 -33.8118 -33.8005 -33.8005 -33.8005
    12.3422  12.3422  12.3422  12.7175  15.5273  15.5273  15.5273  15.5374
    15.5374  15.5374  15.6209  15.6209  15.9065  16.1111  16.1111  16.1346
    16.1346  16.1346  16.2067  16.2067  16.2067  16.2094  16.2094  16.2094
    18.9525  18.9525  18.9525  19.0145  19.0145  19.0145  19.0184  19.0184
    19.0281  19.0281  19.0281  19.0718  19.0718  19.1645  19.1645  19.1645
    19.3982  19.3982  19.3982  19.6898  24.8366

          k = 0.5000 0.5000 0.5000     band energies (ev):

   -67.8082 -67.8082 -67.8082 -67.8081 -67.7623 -67.7623 -67.7623 -67.7623
   -34.0577 -34.0577 -34.0577 -34.0577 -34.0577 -34.0577 -34.0577 -34.0577
   -34.0276 -34.0276 -34.0276 -34.0276 -33.8398 -33.8398 -33.8398 -33.8398
   -33.8078 -33.8078 -33.8078 -33.8078 -33.8078 -33.8077 -33.8077 -33.8077
    12.4317  12.4317  12.4317  12.4317  15.5622  15.5622  15.5622  15.5622
    15.5622  15.5622  15.5622  15.5622  16.0609  16.0609  16.0609  16.0609
    16.1820  16.1820  16.1820  16.1820  16.1820  16.1820  16.1820  16.1820
    18.9977  18.9977  18.9977  18.9977  18.9977  18.9977  18.9978  18.9978
    19.0858  19.0858  19.0858  19.0858  19.0858  19.0858  19.0858  19.0858
    19.4703  19.4703  19.4703  19.4703  25.2050

     Writing output data file FeSC.save

     init_run     :      3.58s CPU      3.63s WALL (       1 calls)
     electrons    :   8977.63s CPU   9144.62s WALL (       1 calls)

     Called by init_run:
     wfcinit      :      0.00s CPU      0.00s WALL (       1 calls)
     potinit      :      0.68s CPU      0.70s WALL (       1 calls)

     Called by electrons:
     c_bands      :   8977.59s CPU   9144.57s WALL (       1 calls)
     v_of_rho     :      0.63s CPU      0.64s WALL (       1 calls)
     v_h          :      0.01s CPU      0.01s WALL (       1 calls)
     v_xc         :      0.62s CPU      0.64s WALL (       1 calls)
     newd         :      1.28s CPU      1.29s WALL (       1 calls)

     Called by c_bands:
     init_us_2    :      0.69s CPU      0.77s WALL (     120 calls)
     ccgdiagg     :   8334.36s CPU   8487.16s WALL (     510 calls)
     wfcrot       :    634.86s CPU    647.07s WALL (     510 calls)

     Called by sum_band:

     Called by *cgdiagg:
     h_psi        :   5208.60s CPU   5301.89s WALL (  434556 calls)
     s_psi        :   1861.43s CPU   1902.08s WALL (  868602 calls)
     cdiaghg      :      5.23s CPU      5.31s WALL (     510 calls)

     Called by h_psi:
     h_psi:vloc   :   2943.45s CPU   2998.25s WALL (  434556 calls)
     h_psi:vnl    :   2252.06s CPU   2290.38s WALL (  434556 calls)
     add_vuspsi   :   1026.70s CPU   1044.92s WALL (  434556 calls)

     General routines
     calbec       :   2126.01s CPU   2164.36s WALL (  868602 calls)
     fft          :      0.11s CPU      0.12s WALL (      23 calls)
     ffts         :      0.01s CPU      0.01s WALL (       2 calls)
     fftw         :   2426.84s CPU   2469.36s WALL (  953112 calls)
     interpolate  :      0.02s CPU      0.02s WALL (       2 calls)
     davcio       :      0.07s CPU      1.25s WALL (     120 calls)

     Parallel routines
     fft_scatter  :    123.73s CPU    127.59s WALL (  953137 calls)

     PWSCF        :     2h29m CPU        2h32m WALL


   This run was terminated on:  16:32:52  15Feb2014            

=------------------------------------------------------------------------------=
   JOB DONE.
=------------------------------------------------------------------------------=
