
     Program PWSCF v.5.0.2 (svn rev. 9656) starts on 15Feb2014 at 11:55:37 

     This program is part of the open-source Quantum ESPRESSO suite
     for quantum simulation of materials; please cite
         "P. Giannozzi et al., J. Phys.:Condens. Matter 21 395502 (2009);
          URL http://www.quantum-espresso.org", 
     in publications or presentations arising from this work. More details at
     http://www.quantum-espresso.org/quote.php

     Parallel version (MPI), running on     2 processors
     R & G space division:  proc/nbgrp/npool/nimage =       2

     Current dimensions of program PWSCF are:
     Max number of different atomic species (ntypx) = 10
     Max number of k-points (npk) =  40000
     Max angular momentum in pseudopotentials (lmaxx) =  3
     Waiting for input...
     Reading input from standard input

     Subspace diagonalization in iterative solution of the eigenvalue problem:
     a serial algorithm will be used

     Found symmetry operation: I + ( -0.5000  0.0000  0.0000)
     This is a supercell, fractional translations are disabled

     Parallelization info
     --------------------
     sticks:   dense  smooth     PW     G-vecs:    dense   smooth      PW
     Min         987     595    170                27896    12968    1998
     Max         988     596    171                27897    12971    1999
     Sum        1975    1191    341                55793    25939    3997



     bravais-lattice index     =            3
     lattice parameter (alat)  =      10.8400  a.u.
     unit-cell volume          =     636.8804 (a.u.)^3
     number of atoms/cell      =            8
     number of atomic types    =            1
     number of electrons       =       128.00
     number of Kohn-Sham states=           77
     kinetic-energy cutoff     =      45.0000  Ry
     charge density cutoff     =     300.0000  Ry
     convergence threshold     =      1.0E-10
     mixing beta               =       0.7000
     number of iterations used =            8  plain     mixing
     Exchange-correlation      = SLA  PW   PBE  PBE ( 1 4 3 4 0)
     EXX-fraction              =        0.00

     celldm(1)=  10.840000  celldm(2)=   0.000000  celldm(3)=   0.000000
     celldm(4)=   0.000000  celldm(5)=   0.000000  celldm(6)=   0.000000

     crystal axes: (cart. coord. in units of alat)
               a(1) = (   0.500000   0.500000   0.500000 )  
               a(2) = (  -0.500000   0.500000   0.500000 )  
               a(3) = (  -0.500000  -0.500000   0.500000 )  

     reciprocal axes: (cart. coord. in units 2 pi/alat)
               b(1) = (  1.000000  0.000000  1.000000 )  
               b(2) = ( -1.000000  1.000000  0.000000 )  
               b(3) = (  0.000000 -1.000000  1.000000 )  


     PseudoPot. # 1 for Fe read from file:
     ../pps/fe_pbe_v1.uspp.F.UPF
     MD5 check sum: e6601fc8106164ab3104f788edde3ce3
     Pseudo is Ultrasoft + core correction, Zval = 16.0
     Generated by new atomic code, or converted to UPF format
     Using radial grid of  861 points,  6 beta functions with: 
                l(1) =   0
                l(2) =   0
                l(3) =   1
                l(4) =   1
                l(5) =   2
                l(6) =   2
     Q(r) pseudized with  8 coefficients,  rinner =    1.200   1.200   1.200
                                                       1.200   1.200

     atomic species   valence    mass     pseudopotential
        Fe            16.00    55.84500     Fe( 1.00)

     Starting magnetic structure 
     atomic species   magnetization
        Fe           0.500

     48 Sym. Ops., with inversion, found



   Cartesian axes

     site n.     atom                  positions (alat units)
         1           Fe  tau(   1) = (   0.0000000   0.0000000   0.0000000  )
         2           Fe  tau(   2) = (   0.2500000   0.2500000   0.2500000  )
         3           Fe  tau(   3) = (  -0.2500000   0.2500000   0.2500000  )
         4           Fe  tau(   4) = (   0.0000000   0.5000000   0.5000000  )
         5           Fe  tau(   5) = (  -0.2500000  -0.2500000   0.2500000  )
         6           Fe  tau(   6) = (   0.0000000   0.0000000   0.5000000  )
         7           Fe  tau(   7) = (  -0.5000000   0.0000000   0.5000000  )
         8           Fe  tau(   8) = (  -0.2500000   0.2500000   0.7500000  )

     number of k points=    12  Methfessel-Paxton smearing, width (Ry)=  0.0400
                       cart. coord. in units 2pi/alat
        k(    1) = (   0.0000000   0.0000000   0.2500000), wk =   0.0937500
        k(    2) = (   0.0000000  -0.2500000   0.5000000), wk =   0.3750000
        k(    3) = (  -0.2500000   0.2500000   0.2500000), wk =   0.1250000
        k(    4) = (  -0.2500000   0.7500000  -0.2500000), wk =   0.1250000
        k(    5) = (   0.5000000  -0.5000000   0.2500000), wk =   0.1875000
        k(    6) = (   0.0000000   0.0000000   0.7500000), wk =   0.0937500
        k(    7) = (   0.0000000   0.0000000   0.2500000), wk =   0.0937500
        k(    8) = (   0.0000000  -0.2500000   0.5000000), wk =   0.3750000
        k(    9) = (  -0.2500000   0.2500000   0.2500000), wk =   0.1250000
        k(   10) = (  -0.2500000   0.7500000  -0.2500000), wk =   0.1250000
        k(   11) = (   0.5000000  -0.5000000   0.2500000), wk =   0.1875000
        k(   12) = (   0.0000000   0.0000000   0.7500000), wk =   0.0937500

     Dense  grid:    55793 G-vectors     FFT dimensions: (  54,  54,  54)

     Smooth grid:    25939 G-vectors     FFT dimensions: (  45,  45,  45)

     Largest allocated arrays     est. size (Mb)     dimensions
        Kohn-Sham Wavefunctions         1.92 Mb     (   1631,   77)
        NL pseudopotentials             3.58 Mb     (   1631,  144)
        Each V/rho on FFT grid          2.40 Mb     (  78732,   2)
        Each G-vector array             0.21 Mb     (  27896)
        G-vector shells                 0.00 Mb     (    411)
     Largest temporary arrays     est. size (Mb)     dimensions
        Auxiliary wavefunctions         7.67 Mb     (   1631,  308)
        Each subspace H/S matrix        1.45 Mb     ( 308, 308)
        Each <psi_i|beta_j> matrix      0.17 Mb     (    144,   77)
        Arrays for rho mixing           9.61 Mb     (  78732,   8)

     Check: negative/imaginary core charge=   -0.000207    0.000000

     Initial potential from superposition of free atoms

     starting charge  119.99995, renormalised to  128.00000
     Starting wfc are  104 randomized atomic wfcs

     total cpu time spent up to now is       14.2 secs

     per-process dynamical memory:    32.4 Mb

     Self-consistent Calculation

     iteration #  1     ecut=    45.00 Ry     beta=0.70
     Davidson diagonalization with overlap
     ethr =  1.00E-02,  avg # of iterations =  2.8

     total cpu time spent up to now is      152.2 secs

     total energy              =   -2018.16257963 Ry
     Harris-Foulkes estimate   =   -2028.65840221 Ry
     estimated scf accuracy    <      23.37591221 Ry

     total magnetization       =    25.62 Bohr mag/cell
     absolute magnetization    =    25.97 Bohr mag/cell

     iteration #  2     ecut=    45.00 Ry     beta=0.70
     Davidson diagonalization with overlap
     ethr =  1.00E-02,  avg # of iterations =  3.0

     total cpu time spent up to now is      226.5 secs

     total energy              =   -2019.19973800 Ry
     Harris-Foulkes estimate   =   -2036.73894111 Ry
     estimated scf accuracy    <      41.01422284 Ry

     total magnetization       =    17.88 Bohr mag/cell
     absolute magnetization    =    18.47 Bohr mag/cell

     iteration #  3     ecut=    45.00 Ry     beta=0.70
     Davidson diagonalization with overlap
     ethr =  1.00E-02,  avg # of iterations =  3.1

     total cpu time spent up to now is      272.4 secs

     total energy              =   -2027.05980238 Ry
     Harris-Foulkes estimate   =   -2027.73621573 Ry
     estimated scf accuracy    <       1.66862135 Ry

     total magnetization       =    22.31 Bohr mag/cell
     absolute magnetization    =    23.30 Bohr mag/cell

     iteration #  4     ecut=    45.00 Ry     beta=0.70
     Davidson diagonalization with overlap
     ethr =  1.30E-03,  avg # of iterations =  3.3

     total cpu time spent up to now is      312.8 secs

     total energy              =   -2025.76452187 Ry
     Harris-Foulkes estimate   =   -2031.07239235 Ry
     estimated scf accuracy    <      40.14571221 Ry

     total magnetization       =    11.48 Bohr mag/cell
     absolute magnetization    =    12.42 Bohr mag/cell

     iteration #  5     ecut=    45.00 Ry     beta=0.70
     Davidson diagonalization with overlap
     ethr =  1.30E-03,  avg # of iterations =  3.3

     total cpu time spent up to now is      357.6 secs

     total energy              =   -2027.10563053 Ry
     Harris-Foulkes estimate   =   -2028.80206592 Ry
     estimated scf accuracy    <      18.37142933 Ry

     total magnetization       =    15.61 Bohr mag/cell
     absolute magnetization    =    16.34 Bohr mag/cell

     iteration #  6     ecut=    45.00 Ry     beta=0.70
     Davidson diagonalization with overlap
     ethr =  1.30E-03,  avg # of iterations =  3.0

     total cpu time spent up to now is      389.8 secs

     total energy              =   -2027.76230821 Ry
     Harris-Foulkes estimate   =   -2027.79546046 Ry
     estimated scf accuracy    <       0.40627942 Ry

     total magnetization       =    19.14 Bohr mag/cell
     absolute magnetization    =    20.33 Bohr mag/cell

     iteration #  7     ecut=    45.00 Ry     beta=0.70
     Davidson diagonalization with overlap
     ethr =  3.17E-04,  avg # of iterations =  1.8

     total cpu time spent up to now is      418.0 secs

     total energy              =   -2027.77179944 Ry
     Harris-Foulkes estimate   =   -2027.77498833 Ry
     estimated scf accuracy    <       0.05569829 Ry

     total magnetization       =    19.19 Bohr mag/cell
     absolute magnetization    =    20.43 Bohr mag/cell

     iteration #  8     ecut=    45.00 Ry     beta=0.70
     Davidson diagonalization with overlap
     ethr =  4.35E-05,  avg # of iterations =  2.0

     total cpu time spent up to now is      446.9 secs

     total energy              =   -2027.77656553 Ry
     Harris-Foulkes estimate   =   -2027.77530876 Ry
     estimated scf accuracy    <       0.00426872 Ry

     total magnetization       =    18.79 Bohr mag/cell
     absolute magnetization    =    20.07 Bohr mag/cell

     iteration #  9     ecut=    45.00 Ry     beta=0.70
     Davidson diagonalization with overlap
     ethr =  3.33E-06,  avg # of iterations =  2.7

     total cpu time spent up to now is      478.2 secs

     total energy              =   -2027.77713793 Ry
     Harris-Foulkes estimate   =   -2027.77724109 Ry
     estimated scf accuracy    <       0.00424021 Ry

     total magnetization       =    18.53 Bohr mag/cell
     absolute magnetization    =    19.80 Bohr mag/cell

     iteration # 10     ecut=    45.00 Ry     beta=0.70
     Davidson diagonalization with overlap
     ethr =  3.31E-06,  avg # of iterations =  1.5

     total cpu time spent up to now is      507.4 secs

     total energy              =   -2027.77737950 Ry
     Harris-Foulkes estimate   =   -2027.77748863 Ry
     estimated scf accuracy    <       0.00096821 Ry

     total magnetization       =    18.36 Bohr mag/cell
     absolute magnetization    =    19.61 Bohr mag/cell

     iteration # 11     ecut=    45.00 Ry     beta=0.70
     Davidson diagonalization with overlap
     ethr =  7.56E-07,  avg # of iterations =  2.5

     total cpu time spent up to now is      535.3 secs

     total energy              =   -2027.77750905 Ry
     Harris-Foulkes estimate   =   -2027.77750801 Ry
     estimated scf accuracy    <       0.00000969 Ry

     total magnetization       =    18.29 Bohr mag/cell
     absolute magnetization    =    19.53 Bohr mag/cell

     iteration # 12     ecut=    45.00 Ry     beta=0.70
     Davidson diagonalization with overlap
     ethr =  7.57E-09,  avg # of iterations =  3.3

     total cpu time spent up to now is      670.4 secs

     total energy              =   -2027.77751198 Ry
     Harris-Foulkes estimate   =   -2027.77751341 Ry
     estimated scf accuracy    <       0.00001380 Ry

     total magnetization       =    18.29 Bohr mag/cell
     absolute magnetization    =    19.52 Bohr mag/cell

     iteration # 13     ecut=    45.00 Ry     beta=0.70
     Davidson diagonalization with overlap
     ethr =  7.57E-09,  avg # of iterations =  2.4

     total cpu time spent up to now is      741.0 secs

     total energy              =   -2027.77751402 Ry
     Harris-Foulkes estimate   =   -2027.77751457 Ry
     estimated scf accuracy    <       0.00000607 Ry

     total magnetization       =    18.30 Bohr mag/cell
     absolute magnetization    =    19.53 Bohr mag/cell

     iteration # 14     ecut=    45.00 Ry     beta=0.70
     Davidson diagonalization with overlap
     ethr =  4.75E-09,  avg # of iterations =  1.0

     total cpu time spent up to now is      767.5 secs

     total energy              =   -2027.77751458 Ry
     Harris-Foulkes estimate   =   -2027.77751462 Ry
     estimated scf accuracy    <       0.00000060 Ry

     total magnetization       =    18.30 Bohr mag/cell
     absolute magnetization    =    19.52 Bohr mag/cell

     iteration # 15     ecut=    45.00 Ry     beta=0.70
     Davidson diagonalization with overlap
     ethr =  4.72E-10,  avg # of iterations =  2.4

     total cpu time spent up to now is      795.6 secs

     total energy              =   -2027.77751465 Ry
     Harris-Foulkes estimate   =   -2027.77751464 Ry
     estimated scf accuracy    <       0.00000003 Ry

     total magnetization       =    18.30 Bohr mag/cell
     absolute magnetization    =    19.53 Bohr mag/cell

     iteration # 16     ecut=    45.00 Ry     beta=0.70
     Davidson diagonalization with overlap
     ethr =  2.11E-11,  avg # of iterations =  3.1

     total cpu time spent up to now is      829.6 secs

     total energy              =   -2027.77751466 Ry
     Harris-Foulkes estimate   =   -2027.77751466 Ry
     estimated scf accuracy    <       0.00000001 Ry

     total magnetization       =    18.30 Bohr mag/cell
     absolute magnetization    =    19.53 Bohr mag/cell

     iteration # 17     ecut=    45.00 Ry     beta=0.70
     Davidson diagonalization with overlap
     ethr =  9.26E-12,  avg # of iterations =  1.9

     total cpu time spent up to now is      859.4 secs

     total energy              =   -2027.77751466 Ry
     Harris-Foulkes estimate   =   -2027.77751466 Ry
     estimated scf accuracy    <          7.9E-10 Ry

     total magnetization       =    18.30 Bohr mag/cell
     absolute magnetization    =    19.53 Bohr mag/cell

     iteration # 18     ecut=    45.00 Ry     beta=0.70
     Davidson diagonalization with overlap
     ethr =  6.16E-13,  avg # of iterations =  2.8

     total cpu time spent up to now is      890.0 secs

     total energy              =   -2027.77751466 Ry
     Harris-Foulkes estimate   =   -2027.77751466 Ry
     estimated scf accuracy    <          8.5E-10 Ry

     total magnetization       =    18.30 Bohr mag/cell
     absolute magnetization    =    19.53 Bohr mag/cell

     iteration # 19     ecut=    45.00 Ry     beta=0.70
     Davidson diagonalization with overlap
     ethr =  6.16E-13,  avg # of iterations =  2.1

     total cpu time spent up to now is      918.7 secs

     End of self-consistent calculation

 ------ SPIN UP ------------


          k = 0.0000 0.0000 0.2500 (  3235 PWs)   bands (ev):

   -70.8630 -70.8017 -70.8017 -70.8017 -70.8017 -70.8004 -70.8004 -70.7551
   -37.0398 -37.0398 -37.0371 -37.0371 -37.0371 -37.0371 -36.9526 -36.9439
   -36.9439 -36.8229 -36.8229 -36.8156 -36.8156 -36.8156 -36.8156 -36.7105
   -36.7049 -36.7049 -36.7019 -36.7019 -36.7019 -36.7019 -36.7017 -36.7017
     9.2446  12.5403  12.5403  12.5403  12.5403  12.6612  12.6612  12.7359
    12.7369  13.8819  13.8819  14.0389  14.0389  14.0389  14.0389  14.9311
    14.9311  15.0154  15.7104  15.7104  15.7104  15.7104  16.0606  16.1638
    16.1638  16.1638  16.1638  16.2504  16.2504  16.2518  16.2560  16.2560
    16.3820  16.3820  16.9842  16.9842  17.1395  17.3585  17.3585  17.3585
    17.3585  17.7955  17.7955  17.7955  17.7955

          k = 0.0000-0.2500 0.5000 (  3265 PWs)   bands (ev):

   -70.8451 -70.8197 -70.8026 -70.8026 -70.7995 -70.7995 -70.7881 -70.7688
   -37.0115 -36.9945 -36.9945 -36.9885 -36.9885 -36.9754 -36.9417 -36.9065
   -36.8758 -36.8534 -36.8459 -36.8459 -36.8285 -36.8284 -36.8054 -36.7824
   -36.7744 -36.7373 -36.7373 -36.7352 -36.7293 -36.7293 -36.7038 -36.7027
    10.4155  12.0495  12.9263  12.9263  13.0861  13.1169  13.2468  13.2624
    13.2624  13.9209  13.9209  14.1905  14.1905  14.2599  14.2962  14.6758
    14.7456  14.7456  14.7546  14.8672  14.8867  14.8867  14.9350  15.6050
    15.8068  15.8214  15.9523  15.9664  15.9664  15.9966  16.2245  16.2690
    16.2690  16.3455  16.4574  16.4574  16.5145  16.5755  16.7122  16.7122
    17.1729  17.2805  18.3378  18.3378  19.8945

          k =-0.2500 0.2500 0.2500 (  3238 PWs)   bands (ev):

   -70.8539 -70.8096 -70.8096 -70.8096 -70.7938 -70.7938 -70.7938 -70.7618
   -37.0258 -37.0258 -37.0258 -36.9973 -36.9973 -36.9973 -36.9580 -36.9580
   -36.8850 -36.8527 -36.8527 -36.8527 -36.8002 -36.8002 -36.8002 -36.7768
   -36.7295 -36.7295 -36.7295 -36.7044 -36.7044 -36.7044 -36.7021 -36.7021
     9.8494  12.5862  12.5862  12.5862  12.9812  12.9812  12.9812  12.9869
    12.9869  14.0108  14.0108  14.0108  14.1708  14.1708  14.1708  14.7380
    14.7380  14.9348  14.9348  14.9348  15.2896  15.2896  15.2896  15.5038
    16.0535  16.0691  16.0691  16.0691  16.1313  16.1313  16.1889  16.1889
    16.1889  16.3432  16.3432  16.3432  17.0238  17.0238  17.0389  17.0389
    17.0389  17.8556  17.8556  17.8556  20.3096

          k =-0.2500 0.7500-0.2500 (  3255 PWs)   bands (ev):

   -70.8239 -70.8239 -70.8239 -70.8019 -70.7954 -70.7857 -70.7857 -70.7857
   -36.9736 -36.9735 -36.9735 -36.9735 -36.9291 -36.9291 -36.8966 -36.8966
   -36.8966 -36.8804 -36.8804 -36.8804 -36.7985 -36.7985 -36.7985 -36.7959
   -36.7959 -36.7744 -36.7744 -36.7744 -36.7512 -36.7250 -36.7250 -36.7250
    11.8509  11.8509  11.8509  13.3923  13.3923  13.3923  13.5687  13.7264
    13.7264  13.7264  13.9050  13.9050  14.0440  14.2743  14.2743  14.4897
    14.4897  14.4897  14.6639  14.6639  14.6639  15.0258  15.0258  15.0258
    15.6857  15.6857  15.6857  15.9672  15.9672  15.9672  16.3289  16.3289
    16.3289  16.3550  16.3550  16.4028  16.4028  16.6883  16.6883  16.6883
    16.8760  16.8760  16.8760  19.7658  19.7658

          k = 0.5000-0.5000 0.2500 (  3236 PWs)   bands (ev):

   -70.8318 -70.8318 -70.8129 -70.8129 -70.7905 -70.7905 -70.7778 -70.7778
   -36.9920 -36.9920 -36.9845 -36.9845 -36.9666 -36.9666 -36.9147 -36.9147
   -36.9048 -36.9048 -36.8917 -36.8917 -36.7984 -36.7984 -36.7852 -36.7852
   -36.7472 -36.7472 -36.7413 -36.7413 -36.7286 -36.7286 -36.7033 -36.7033
    11.4199  11.4199  12.8895  12.8895  13.3683  13.3683  13.6386  13.6386
    13.7344  13.7344  13.9168  13.9168  14.0868  14.0868  14.2642  14.2642
    14.3467  14.3467  14.4266  14.4266  14.5535  14.5535  14.8332  14.8332
    16.0617  16.0617  16.1371  16.1371  16.2483  16.2483  16.2488  16.2488
    16.2664  16.2664  16.3704  16.3704  16.4818  16.4818  16.6833  16.6833
    17.0988  17.0988  18.0534  18.0534  21.5004

          k = 0.0000 0.0000 0.7500 (  3260 PWs)   bands (ev):

   -70.8284 -70.8048 -70.8048 -70.8048 -70.8048 -70.7974 -70.7974 -70.7837
   -36.9391 -36.9391 -36.9269 -36.9269 -36.9269 -36.9269 -36.9211 -36.8704
   -36.8704 -36.8612 -36.8612 -36.8212 -36.8190 -36.8189 -36.8189 -36.8189
   -36.8003 -36.8003 -36.7789 -36.7789 -36.7789 -36.7789 -36.7700 -36.7700
    11.4474  12.7636  12.7636  12.7636  12.7636  13.1881  13.6890  13.7904
    13.7904  13.8650  13.8650  14.3277  14.3277  14.3277  14.3277  14.4964
    14.4964  14.9442  14.9442  14.9442  14.9442  15.0745  15.0772  15.0772
    15.5928  15.5928  15.5928  15.5928  15.6183  15.8192  15.8192  16.3865
    16.3865  16.4060  16.4060  16.4639  16.4639  16.4639  16.4639  16.4984
    16.6870  17.4895  17.4895  17.4895  17.4895

 ------ SPIN DOWN ----------


          k = 0.0000 0.0000 0.2500 (  3235 PWs)   bands (ev):

   -67.8518 -67.7835 -67.7835 -67.7834 -67.7834 -67.7820 -67.7820 -67.7321
   -34.1535 -34.1535 -34.1503 -34.1503 -34.1503 -34.1503 -34.0517 -34.0414
   -34.0414 -33.9050 -33.9050 -33.8965 -33.8965 -33.8965 -33.8965 -33.7794
   -33.7733 -33.7733 -33.7698 -33.7698 -33.7698 -33.7698 -33.7689 -33.7689
     9.3875  13.8149  13.8149  13.8149  13.8149  14.0472  14.0472  14.5445
    14.6067  15.8035  15.8035  16.0119  16.0119  16.0119  16.0119  17.1148
    17.1148  17.1236  17.1236  17.1236  17.1236  17.2240  17.2660  17.2660
    18.7845  18.7845  18.7845  18.7845  18.8366  18.9621  18.9621  19.0890
    19.2773  19.2773  19.4276  19.4276  19.6501  19.6501  19.6501  19.6501
    19.6654  19.9145  19.9145  19.9145  19.9145

          k = 0.0000-0.2500 0.5000 (  3265 PWs)   bands (ev):

   -67.8318 -67.8035 -67.7845 -67.7845 -67.7810 -67.7810 -67.7684 -67.7471
   -34.1205 -34.1017 -34.1017 -34.0949 -34.0949 -34.0784 -34.0422 -33.9992
   -33.9651 -33.9392 -33.9322 -33.9322 -33.9117 -33.9117 -33.8873 -33.8593
   -33.8514 -33.8097 -33.8097 -33.8065 -33.8004 -33.8004 -33.7715 -33.7705
    10.5885  12.5363  13.9175  13.9175  14.5439  14.6532  14.6532  14.8228
    15.1241  15.7376  15.7376  15.9733  16.0844  16.0844  16.2490  16.2490
    16.3253  16.4794  16.4794  16.6468  16.7937  16.8037  16.9747  17.8835
    18.1697  18.1824  18.4569  18.4884  18.4915  18.4915  18.5723  18.9932
    19.0108  19.0108  19.1943  19.2885  19.2885  19.3081  19.3497  19.3497
    19.6971  19.8228  20.4013  20.4013  21.3643

          k =-0.2500 0.2500 0.2500 (  3238 PWs)   bands (ev):

   -67.8416 -67.7922 -67.7922 -67.7922 -67.7747 -67.7747 -67.7747 -67.7394
   -34.1371 -34.1371 -34.1371 -34.1052 -34.1052 -34.1052 -34.0579 -34.0579
   -33.9751 -33.9390 -33.9390 -33.9390 -33.8795 -33.8795 -33.8795 -33.8545
   -33.8007 -33.8007 -33.8007 -33.7726 -33.7726 -33.7726 -33.7695 -33.7695
    10.0022  13.5115  13.5115  13.5115  14.4609  14.4609  14.4609  14.8210
    14.8210  15.9637  15.9637  15.9637  16.1155  16.1155  16.1155  16.4860
    16.4860  16.4860  16.5640  16.5640  16.5640  16.8747  16.8747  17.7580
    18.2438  18.6414  18.6414  18.6414  18.8908  18.8908  18.8908  18.9230
    18.9230  19.2171  19.2171  19.2171  19.4833  19.4833  19.5868  19.5868
    19.5868  20.0527  20.0527  20.0527  21.7180

          k =-0.2500 0.7500-0.2500 (  3255 PWs)   bands (ev):

   -67.8082 -67.8082 -67.8082 -67.7836 -67.7763 -67.7658 -67.7658 -67.7658
   -34.0779 -34.0772 -34.0772 -34.0772 -34.0272 -34.0272 -33.9908 -33.9908
   -33.9908 -33.9703 -33.9703 -33.9703 -33.8780 -33.8780 -33.8780 -33.8761
   -33.8761 -33.8508 -33.8508 -33.8508 -33.8252 -33.7954 -33.7954 -33.7954
    12.1637  12.1637  12.1637  14.6464  14.6464  14.6464  15.0087  15.2641
    15.6578  15.6578  15.6978  15.6978  15.6978  15.8183  15.8183  16.5417
    16.5417  16.5417  16.6748  16.6748  16.6748  17.0885  17.0885  17.0885
    18.2275  18.2275  18.2275  18.2630  18.2630  18.2630  18.7254  18.7254
    18.7254  19.1839  19.1839  19.2134  19.2134  19.3564  19.3564  19.3564
    19.4170  19.4170  19.4170  21.3991  21.3991

          k = 0.5000-0.5000 0.2500 (  3236 PWs)   bands (ev):

   -67.8169 -67.8169 -67.7959 -67.7959 -67.7711 -67.7711 -67.7570 -67.7570
   -34.0976 -34.0976 -34.0898 -34.0898 -34.0701 -34.0701 -34.0092 -34.0092
   -33.9988 -33.9988 -33.9852 -33.9852 -33.8778 -33.8778 -33.8635 -33.8635
   -33.8202 -33.8202 -33.8135 -33.8135 -33.7997 -33.7997 -33.7711 -33.7711
    11.6685  11.6685  13.4624  13.4624  15.1248  15.1248  15.1582  15.1582
    15.4673  15.4673  15.6713  15.6713  15.9623  15.9623  16.0808  16.0808
    16.1823  16.1823  16.3835  16.3835  16.5267  16.5267  16.8215  16.8215
    18.6200  18.6200  18.7726  18.7726  18.7894  18.7894  18.8065  18.8065
    18.8678  18.8678  19.0790  19.0790  19.2158  19.2158  19.2694  19.2694
    19.5975  19.5975  20.2301  20.2301  22.9597

          k = 0.0000 0.0000 0.7500 (  3260 PWs)   bands (ev):

   -67.8133 -67.7870 -67.7870 -67.7870 -67.7870 -67.7785 -67.7785 -67.7637
   -34.0389 -34.0389 -34.0252 -34.0252 -34.0252 -34.0252 -34.0185 -33.9585
   -33.9585 -33.9502 -33.9502 -33.9063 -33.9005 -33.9005 -33.9005 -33.9005
   -33.8814 -33.8814 -33.8563 -33.8563 -33.8563 -33.8563 -33.8456 -33.8456
    11.6861  13.3991  13.3991  13.3991  13.3991  14.3732  15.3252  15.3252
    15.5724  15.5724  15.7747  15.9313  15.9313  16.4159  16.4159  16.4159
    16.4159  17.0326  17.0326  17.0326  17.0326  17.2009  17.2009  17.5370
    17.8588  17.8588  17.8588  17.8588  17.9104  17.9886  17.9886  18.8627
    18.8627  18.8627  18.8627  18.9216  19.2471  19.2471  19.3100  19.3100
    19.4953  19.8821  19.8821  19.8821  19.8821

     the Fermi energy is    17.2443 ev

!    total energy              =   -2027.77751466 Ry
     Harris-Foulkes estimate   =   -2027.77751466 Ry
     estimated scf accuracy    <          6.2E-11 Ry

     The total energy is the sum of the following terms:

     one-electron contribution =    -982.17200378 Ry
     hartree contribution      =     565.58386135 Ry
     xc contribution           =    -236.08774101 Ry
     ewald contribution        =   -1375.11994550 Ry
     smearing contrib. (-TS)   =       0.01831429 Ry

     total magnetization       =    18.30 Bohr mag/cell
     absolute magnetization    =    19.53 Bohr mag/cell

     convergence has been achieved in  19 iterations

     Writing output data file FeSC.save

     init_run     :     13.66s CPU     14.10s WALL (       1 calls)
     electrons    :    713.94s CPU    904.54s WALL (       1 calls)

     Called by init_run:
     wfcinit      :     11.58s CPU     11.95s WALL (       1 calls)
     potinit      :      0.43s CPU      0.46s WALL (       1 calls)

     Called by electrons:
     c_bands      :    583.64s CPU    728.61s WALL (      19 calls)
     sum_band     :    103.16s CPU    140.40s WALL (      19 calls)
     v_of_rho     :      9.00s CPU     11.46s WALL (      20 calls)
     newd         :     14.67s CPU     17.06s WALL (      20 calls)
     mix_rho      :      1.28s CPU      2.11s WALL (      19 calls)

     Called by c_bands:
     init_us_2    :      1.55s CPU      2.10s WALL (     468 calls)
     cegterg      :    577.64s CPU    719.33s WALL (     228 calls)

     Called by *egterg:
     h_psi        :    327.03s CPU    426.36s WALL (     817 calls)
     s_psi        :     52.90s CPU     59.21s WALL (     817 calls)
     g_psi        :      0.63s CPU      0.72s WALL (     577 calls)
     cdiaghg      :     35.20s CPU     43.50s WALL (     805 calls)

     Called by h_psi:
     add_vuspsi   :     52.18s CPU     57.60s WALL (     817 calls)

     General routines
     calbec       :     75.88s CPU     86.76s WALL (    1045 calls)
     fft          :      5.38s CPU      8.62s WALL (     610 calls)
     ffts         :      0.35s CPU      0.63s WALL (      78 calls)
     fftw         :    250.82s CPU    363.65s WALL (  103982 calls)
     interpolate  :      1.17s CPU      1.82s WALL (      78 calls)
     davcio       :      0.39s CPU      3.16s WALL (     696 calls)

     Parallel routines
     fft_scatter  :    125.08s CPU    234.05s WALL (  104670 calls)

     PWSCF        : 12m 7.80s CPU    15m18.86s WALL


   This run was terminated on:  12:10:56  15Feb2014            

=------------------------------------------------------------------------------=
   JOB DONE.
=------------------------------------------------------------------------------=
